% Model:              lab4.mph
% Version:            COMSOL 5.6.0.401
% Date:               Oct 6 2021, 19:53
% Dimension:          2
% Nodes:              51
% Expressions:        50
% Description:        Temperature, Dependent variable u
% Length unit:        m
% X                       Y                        T (K) @ t=0              u (K) @ t=0              T (K) @ t=1              u (K) @ t=1              T (K) @ t=2              u (K) @ t=2              T (K) @ t=3              u (K) @ t=3              T (K) @ t=4              u (K) @ t=4              T (K) @ t=5              u (K) @ t=5              T (K) @ t=6              u (K) @ t=6              T (K) @ t=7              u (K) @ t=7              T (K) @ t=8              u (K) @ t=8              T (K) @ t=9              u (K) @ t=9              T (K) @ t=10             u (K) @ t=10             T (K) @ t=11             u (K) @ t=11             T (K) @ t=12             u (K) @ t=12             T (K) @ t=13             u (K) @ t=13             T (K) @ t=14             u (K) @ t=14             T (K) @ t=15             u (K) @ t=15             T (K) @ t=16             u (K) @ t=16             T (K) @ t=17             u (K) @ t=17             T (K) @ t=18             u (K) @ t=18             T (K) @ t=19             u (K) @ t=19             T (K) @ t=20             u (K) @ t=20             T (K) @ t=21             u (K) @ t=21             T (K) @ t=22             u (K) @ t=22             T (K) @ t=23             u (K) @ t=23             T (K) @ t=24             u (K) @ t=24
0                         0.5                      273.14999999999986       273.14999999999986       273.14999999999986       273.14999999999986       273.14999999999986       273.14999999999986       273.14999999999986       273.14999999999986       273.14999999999986       273.14999999999986       273.14999999999986       273.14999999999986       273.14999999999986       273.14999999999986       273.14999999999986       273.14999999999986       273.14999999999986       273.14999999999986       273.14999999999986       273.14999999999986       273.14999999999986       273.14999999999986       273.14999999999986       273.14999999999986       273.14999999999986       273.14999999999986       273.14999999999986       273.14999999999986       273.14999999999986       273.14999999999986       273.14999999999986       273.14999999999986       273.14999999999986       273.14999999999986       273.14999999999986       273.14999999999986       273.14999999999986       273.14999999999986       273.14999999999986       273.14999999999986       273.14999999999986       273.14999999999986       273.14999999999986       273.14999999999986       273.14999999999986       273.14999999999986       273.14999999999986       273.14999999999986       273.14999999999986       273.14999999999986
0.02000000000000501       0.5                      273.15003953272          273.15003953272          273.9444229835029        273.9444229835026        274.65230139956145       274.6523013995612        275.2965750530081        275.296575053008         275.90033524005844       275.9003352400583        276.44591381003863       276.44591381003846       276.9710827679089        276.97108276790857       277.4638514168956        277.46385141689524       277.93009926972906       277.9300992697288        278.37609376069736       278.3760937606972        278.79096892917664       278.7909689291765        279.20160760446515       279.2016076044649        279.5895411469301        279.5895411469299        279.9626424155924        279.96264241559214       280.3167675451119        280.31676754511153       280.6524575010737        280.6524575010734        280.9706908954948        280.97069089549467       281.2720811361962        281.272081136196         281.5563485939869        281.5563485939866        281.82610173079104       281.8261017307907        282.08024363561424       282.08024363561384       282.32043396893874       282.32043396893823       282.5473538359726        282.547353835972         282.7608793413798        282.7608793413793        282.96311582778947       282.9631158277889
0.0400000000000049        0.5                      273.1500774521501        273.1500774521501        274.7274581995221        274.7274581995219        276.13777010534653       276.13777010534636       277.4222978268622        277.42229782686206       278.62642969971733       278.6264296997173        279.7148650843149        279.71486508431474       280.76270222852906       280.7627022285288        281.74601649981156       281.7460164998112        282.6765165227367        282.6765165227364        283.5666529009683        283.56665290096805       284.394770475388         284.39477047538776       285.2144410921339        285.21444109213365       285.9888409419279        285.9888409419275        286.7336673725346        286.733667372534         287.4406401654947        287.4406401654941        288.11084027128754       288.1108402712869        288.7462126459902        288.7462126459897        289.3479679291029        289.34796792910237       289.91555532102245       289.915555321022         290.45416086334046       290.4541608633399        290.9616037206816        290.96160372068084       291.44118946705584       291.441189467055         291.8942746712908        291.8942746712898        292.3206138623097        292.3206138623085        292.7244056654836        292.7244056654823
0.0600000000000048        0.5                      273.15011375803647       273.15011375803647       275.4908522580219        275.49085225802173       277.59296166466805       277.59296166466805       279.5098137642746        279.50981376427467       281.30760990257426       281.3076099025742        282.9335008937922        282.93350089379203       284.49903892263256       284.49903892263217       285.96848013439353       285.96848013439313       287.3592627103407        287.35926271034043       288.6898547722378        288.6898547722376        289.92796401424664       289.9279640142464        291.15346744761285       291.1534674476126        292.3114110982333        292.31141109823284       293.42522088698576       293.4252208869849        294.48249527762357       294.4824952776225        295.4848532427156        295.4848532427145        296.4351817866912        296.43518178669007       297.3352567753457        297.3352567753449        298.1842729743679        298.18427297436716       298.98993288690696       298.98993288690616       299.7489974546079        299.74899745460704       300.46639098602014       300.4663909860192        301.14413435965196       301.1441343596509        301.7818651211127        301.7818651211115        302.3858513615223        302.38585136152125
0.08000000000000469       0.5                      273.15014845033625       273.15014845033625       276.2289947327964        276.2289947327964        279.0075394806356        279.00753948063567       281.5450843705211        281.5450843705212        283.92665255849374       283.9266525584938        286.0820008981232        286.0820008981231        288.15787300981356       288.15787300981316       290.10688056213434       290.10688056213394       291.95204499585446       291.95204499585424       293.71761042081204       293.71761042081187       295.36087184310645       295.3608718431062        296.98744492930473       296.9874449293044        298.5245782664941        298.52457826649345       300.00328451336617       300.00328451336526       301.4070633827612        301.4070633827601        302.7380689233194        302.73806892331805       304.00009433898293       304.0000943389816        305.1954335701509        305.1954335701497        306.3230516027203        306.3230516027192        307.39307733048787       307.3930773304868        308.4012513487582        308.401251348757         309.35407671525724       309.35407671525604       310.25422220865          310.25422220864874       311.10121516309783       311.10121516309647       311.9033581608918        311.9033581608905
0.10000000000000459       0.5                      273.15018152904213       273.1501815290422        276.9381847491404        276.9381847491405        280.3736811155656        280.3736811155659        283.51687286871675       283.5168728687169        286.46932543492153       286.4693254349216        289.1436541665507        289.14365416655056       291.72019111376966       291.7201911137693        294.14014066656034       294.14014066656          296.431917911405         296.43191791140487       298.625233207274         298.6252332072739        300.6672615630552        300.667261563055         302.6886188080824        302.6886188080819        304.5991909546492        304.59919095464846       306.4373920243148        306.43739202431374       308.18265305887513       308.18265305887377       309.83765925623123       309.8376592562298        311.40706331592577       311.4070633159244        312.89361595349277       312.89361595349135       314.29608442686214       314.2960844268609        315.6269068976034        315.6269068976022        316.88085286721844       316.8808528672172        318.06595227886714       318.065952278866         319.18550052709946       319.1855005270981        320.23892354617436       320.2389235461728        321.23651316147357       321.23651316147215
0.12000000000000445       0.5                      273.1502129941528        273.15021299415287       277.61604721226604       277.61604721226627       281.6855553051444        281.6855553051447        285.41627613628026       285.4162761362803        288.9239622220113        288.9239622220114        292.104464358342         292.10446435834194       295.1698177103665        295.1698177103661        298.05012112174774       298.0501211217473        300.77895462672865       300.77895462672836       303.3911260916948        303.3911260916945        305.8240461479507        305.8240461479503        308.2324338493128        308.2324338493122        310.50934243546334       310.5093424354624        312.7003614453972        312.7003614453959        314.78089076565607       314.78089076565465       316.7541418458609        316.75414184585946       318.6255702286357        318.6255702286343        320.3983092439304        320.39830924392896       322.07096719871566       322.0709671987143        323.65814983936207       323.6581498393608        325.15371515412386       325.1537151541226        326.5671574470656        326.56715744706423       327.90237306928753       327.90237306928594       329.1586972206273        329.15869722062564       330.3483565980923        330.3483565980907
0.14000000000000437       0.5                      273.15024284566806       273.15024284566806       278.2610949863333        278.2610949863335        282.9388762867108        282.93887628671104       287.23630840335466       287.2363084033546        291.28107549736126       291.2810754973613        294.95278647084007       294.95278647084          298.4930735543037        298.49307355430324       301.8212973579093        301.8212973579088        304.975939883729         304.9759398837286        307.99648879290146       307.9964887929011        310.8110026483411        310.81100264834055       313.5972642331848        313.5972642331839        316.23211012407006       316.2321101240688        318.768042740663         318.76804274066154       321.17647559732524       321.1764755973236        323.4611405491404        323.4611405491387        325.6282304780157        325.628230478014         327.681175849373         327.6811758493713        329.61847071751646       329.61847071751464       331.45672522036824       331.4567252203664        333.1889544589969        333.1889544589953        334.82604540300304       334.8260454030014        336.37246593709847       336.3724659370967        337.8274728148899        337.8274728148879        339.20516550118106       339.2051655011792
0.16000000000000425       0.5                      273.1502710835878        273.1502710835878        278.8724170412379        278.872417041238         284.1305354967005        284.13053549670065       288.9715389946775        288.9715389946772        293.53301023245103       293.5330102324508        297.6789973146443        297.6789973146438        301.6784629656956        301.6784629656949        305.44046186348015       305.44046186347936       309.0080858440639        309.00808584406326       312.42504582046746       312.4250458204667        315.61051031652636       315.61051031652534       318.7641614917662        318.76416149176475       321.7473118206196        321.7473118206179        324.6190813768148        324.619081376813         327.34694906459447       327.34694906459237       329.93516038716785       329.93516038716564       332.39057248051756       332.3905724805153        334.7168179162233        334.71681791622103       336.91232619663873       336.9123261966366        338.9955307177386        338.9955307177365        340.95867986370536       340.9586798637032        342.81397414377085       342.8139741437687        344.5664205039149        344.5664205039127        346.2152108863526        346.21521088635035       347.7762492873724        347.77624928737015
0.18000000000000416       0.5                      273.1502977079124        273.1502977079124        279.44946588956856       279.4494658895688        285.2583056061325        285.2583056061326        290.6177835268851        290.6177835268847        295.6736386586942        295.6736386586937        300.2752008109504        300.27520081094974       304.7163910959358        304.71639109593497       308.896452876788         308.89645287678707       312.8627717623868        312.86277176238593       316.66279614322144       316.66279614322053       320.2073087548813        320.20730875488005       323.71662090480544       323.71662090480385       327.03727910837716       327.0372791083753        330.2346979101799        330.23469791017783       333.2724799208306        333.27247992082835       336.1553766786722        336.15537667866977       338.89083033219316       338.8908303321906        341.48257294404607       341.4825729440435        343.9290231489968        343.92902314899425       346.2502425766158        346.2502425766133        348.43779490592806       348.43779490592556       350.5051095928821        350.50510959287953       352.45769792878525       352.4576979287827        354.29470170592236       354.2947017059197        356.0337568527673        356.0337568527646
0.2000000000000041        0.5                      273.1503227186413        273.1503227186413        279.99191800044747       279.9919180004477        286.3206086161068        286.3206086161067        292.1718457108164        292.17184571081583       297.69809588155795       297.698095881557         302.7349682222109        302.7349682222099        307.5989116221812        307.5989116221802        312.17991005861234       312.1799100586112        316.529308057914         316.5293080579128        320.6977850112376        320.6977850112362        324.5882764917137        324.588276491712         328.4403666447179        328.44036664471605       332.0866480777359        332.0866480777337        335.5984836429607        335.59848364295834       338.93566396848325       338.9356639684806        342.1034382322146        342.1034382322118        345.10974976254903       345.1097497625459        347.95832205249445       347.9583220524913        350.64761942955556       350.64761942955255       353.1991273267889        353.19912732678586       355.6038106850576        355.60381068505444       357.876240001121         357.8762400011179        360.0223948360605        360.0223948360573        362.04138215752187       362.04138215751874       363.9524947563316        363.95249475632835
0.22000000000000394       0.5                      273.150346115775         273.15034611577505       280.49958497416145       280.49958497416156       287.3163382212196        287.3163382212192        293.63130536477354       293.63130536477263       299.6025544974382        299.6025544974369        305.0531125965977        305.05311259659635       310.31950472944675       310.3195047294453        315.2830573105077        315.2830573105062        319.9987250319238        319.9987250319222        324.51989820166176       324.51989820165994       328.74223018560974       328.7422301856075        332.92315579900355       332.92315579900105       336.882167414001         336.8821674139982        340.69621228467446       340.6962122846716        344.32133869081537       344.32133869081235       347.7632843594243        347.76328435942105       351.0304070693756        351.03040706937213       354.12631054150086       354.1263105414973        357.04956304129377       357.0495630412902        359.82286484534484       359.8228648453413        362.43667002824117       362.43667002823753       364.90660121423764       364.90660121423406       367.2390697452074        367.23906974520384       369.4331633494832        369.4331633494798        371.5097561011121        371.50975610110845
0.24000000000000382       0.5                      273.15036789931327       273.15036789931327       280.9723584999399        280.9723584999396        288.2447264906138        288.24472649061306       294.99434739901574       294.9943473990146        301.38403567601          301.3840356760083        307.22549607390613       307.22549607390425       312.8728847616269        312.872884761625         318.1995125362153        318.1995125362133        323.2635861844953        323.26358618449314       328.120678722373         328.1206787223706        332.6597444572622        332.6597444572595        337.15460122943847       337.1546012294355        341.4125237436894        341.4125237436862        345.5156674326368        345.51566743263345       349.41641245182217       349.4164124518187        353.12097538767296       353.12097538766903       356.6380406588359        356.63804065883176       359.97098033581193       359.9709803358076        363.11852527721663       363.1185252772124        366.1043823308842        366.1043823308799        368.918582287836         368.9185822878318        371.57771239043586       371.57771239043177       374.0885798485218        374.0885798485176        376.45026855426636       376.45026855426227       378.6851597449961        378.6851597449917
0.26000000000000373       0.5                      273.15038806925594       273.15038806925594       281.41017700674803       281.4101770067476        289.1052456587492        289.10524565874834       296.2596262803459        296.2596262803447        303.04025372145065       303.04025372144883       309.24886828363253       309.24886828363054       315.25483657536546       315.2548365753635        320.9241238497506        320.9241238497484        326.3178258307433        326.3178258307407        331.4931657883162        331.4931657883134        336.33299215207774       336.3329921520746        341.12601305474607       341.12601305474277       345.66818398242356       345.66818398242003       350.046485553274         350.0464855532702        354.2097078951526        354.20970789514854       358.1645362587093        358.1645362587049        361.91989474313556       361.9198947431309        365.47881385234024       365.47881385233546       368.8402447373074        368.8402447373026        372.0286987372267        372.02869873722193       375.033868338234         375.03386833822935       377.8732217590095        377.87322175900476       380.55392775174465       380.55392775174          383.07508111663486       383.0750811166302        385.4604995008031        385.4604995007982
0.28000000000000363       0.5                      273.15040662560324       273.15040662560324       281.8130058408255        281.8130058408249        289.8975370511268        289.89753705112594       297.42616068991026       297.42616068990895       304.5694909888489        304.5694909888471        311.12073386153895       311.120733861537         317.46207941736674       317.46207941736463       323.45283152005595       323.45283152005356       329.15661050972005       329.1566105097171        334.63175568685756       334.6317556868542        339.75560464999984       339.75560464999626       344.8302583688907        344.830258368887         349.6412542687587        349.6412542687548        354.2800140054492        354.28001400544497       358.6918190524672        358.69181905246285       362.88381270171135       362.88381270170674       366.8650746730806        366.86507467307587       370.63818877555826       370.6381887755534        374.2023817276024        374.20238172759736       377.5827792004681        377.58277920046294       380.7688153412332        380.7688153412281        383.77876202493826       383.77876202493314       386.62011781492527       386.6201178149201        389.29200199874833       389.29200199874316       391.8196030177616        391.81960301775626
0.30000000000000354       0.5                      273.1504235683553        273.1504235683553        282.18082567601607       282.1808256760154        290.6213605857456        290.6213605857446        298.4932536090898        298.4932536090883        305.9705001600517        305.9705001600497        312.839247100378         312.8392471003757        319.4921570590394        319.492157059037         325.78255480659504       325.7825548065922        331.776223517144         331.77622351714064       337.53208397051594       337.5320839705122        342.9225516611994        342.9225516611954        348.2616386312746        348.2616386312703        353.3253549036009        353.32535490359646       358.20918349951523       358.2091834995107        362.8549815450222        362.8549815450175        367.27033936733574       367.27033936733085       371.4644133073172        371.46441330731216       375.4392431747793        375.4392431747739        379.194382521168         379.1943825211625        382.7553989847404        382.7553989847349        386.1115408565114        386.1115408565059        389.2818150439325        389.281815043927         392.2740217590315        392.2740217590259        395.0873166639878        395.0873166639821        397.74820007298496       397.748200072979
0.32000000000000345       0.5                      273.1504388975116        273.1504388975116        282.5136258358849        282.5136258358842        291.2765596904051        291.27655969040404       299.46043379111796       299.46043379111643       307.24243122381296       307.24243122381085       314.4031319058601        314.4031319058577        321.3433529464726        321.34335294646996       327.9111027740469        327.9111027740439        334.173971770103         334.17397177009934       340.1909282542279        340.19092825422393       345.83003977543734       345.83003977543314       351.41578398737795       351.4157839873736        356.7155105449082        356.7155105449037        361.82839423322514       361.8283942332206        366.69295513189957       366.69295513189473       371.31721920664467       371.3172192066396        375.710347747182         375.71034774717674       379.8737503506971        379.87375035069147       383.8073529403019        383.80735294029614       387.53701647129526       387.5370164712894        391.0518658889438        391.0518658889379        394.3715854194321        394.37158541942614       397.5042532384568        397.5042532384507        400.44907103995354       400.44907103994746       403.23380004237634       403.2338000423701
0.34000000000000336       0.5                      273.15045261307284       273.15045261307284       282.81140050027545       282.81140050027483       291.86303775424267       291.8630377542417        300.3274154143061        300.3274154143045        308.3847810090825        308.38478100908037       315.81162551858347       315.811625518581         323.01462923698494       323.0146292369822        329.83710816254194       329.8371081625388        336.34811411731727       336.34811411731374       342.6061307429464        342.6061307429424        348.4754288648332        348.475428864829         354.28956359722457       354.28956359722014       359.8080547326467        359.80805473264206       365.1334147900723        365.1334147900675        370.20091772739806       370.200917727393         375.01901327896064       375.0190132789554        379.59680569965747       379.596805699652         383.93500276052447       383.93500276051867       388.0339407086915        388.0339407086854        391.9196547249317        391.91965472492546       395.58119648917585       395.58119648916966       399.03888270847074       399.03888270846454       402.30105112124494       402.3010511212387        405.3669563450908        405.36695634508436       408.26557836530156       408.26557836529497
0.36000000000000315       0.5                      273.1504647150385        273.1504647150385        283.0741465885577        283.07414658855697       292.38074335410334       292.3807433541022        301.0940736131841        301.0940736131824        309.3973637457394        309.3973637457371        317.064444853845         317.0644448538423        324.5055887702116        324.50558877020865       331.5599834130683        331.55998341306497       338.297810128071         338.2978101280673        344.7765394642345        344.7765394642304        350.85716526865707       350.85716526865275       356.8810108623263        356.8810108623218        362.6005476399983        362.60054763999347       368.1212927297059        368.12129272970077       373.3753698825442        373.37536988253885       378.37164008015833       378.3716400801529        383.11910067526486       383.1191006752594        387.61770434542973       387.617704345424         391.86822602464576       391.8682260246395        395.896791193727         395.8967911937206        399.69241355961066       399.69241355960423       403.27601196797724       403.27601196797076       406.6561712678925        406.65617126788595       409.8322026126965        409.83220261268974       412.8342718659717        412.8342718659648
0.38000000000000317       0.5                      273.1504752034087        273.1504752034087        283.3018626192351        283.3018626192344        292.8296624750084        292.829662475007         301.7604345220053        301.7604345220034        310.2803018407843        310.28030184078176       318.1617747719014        318.1617747718985        325.8164592331978        325.8164592331945        333.0798979820355        333.0798979820318        340.02308830907026       340.02308830906617       346.70196701781026       346.7019670178058        352.97473050765177       352.97473050764717       359.18926224709264       359.18926224708775       365.09170576454943       365.0917057645443        370.790275647131         370.79027564712555       376.2140486062705        376.214048606265         381.37228340285003       381.3722834028444        386.2738351877676        386.2738351877619        390.91787057503683       390.9178705750307        395.30561982503883       395.3056198250319        399.46325513479803       399.463255134791         403.3797705661405        403.3797705661336        407.076672427569         407.0766724275621        410.5627866560059        410.56278665599893       413.8374808002974        413.8374808002903        416.93208284623626       416.932082846229
0.4000000000000031        0.5                      273.1504840781833        273.15048407818335       283.4945481578841        283.4945481578831        293.2098168227751        293.2098168227737        302.32667943995637       302.3266794399544        311.0340368340254        311.0340368340227        319.10427808945917       319.10427808945605       326.9480989937089        326.94809899370546       334.397776097201         334.39777609719715       341.52483259135107       341.5248325913469        348.38316546656074       348.3831654665563        354.82860407691277       354.82860407690805       361.21450818616          361.21450818615506       367.2813420894005        367.28134208939514       373.13974133187236       373.13974133186656       378.7158492963225        378.71584929631655       384.0193076783421        384.0193076783362        389.0588111036473        389.05881110364135       393.83273553600975       393.8327355360033        398.3427692473352        398.342769247328         402.6151324124721        402.6151324124648        406.6387989176011        406.63879891759376       410.43586413944683       410.43586413943933       414.0153957616246        414.01539576161696       417.3768134309663        417.37681343095863       420.55259191858534       420.55259191857755