% Model:              Q8final.mph
% Version:            COMSOL 5.5.0.292
% Date:               Oct 22 2021, 17:48
% Dimension:          2
% Nodes:              41
% Expressions:        51
% Description:        Dependent variable u
% Length unit:        m
% X                       Y                        u (1) @ t=0              u (1) @ t=0.02           u (1) @ t=0.04           u (1) @ t=0.06           u (1) @ t=0.08           u (1) @ t=0.1            u (1) @ t=0.12           u (1) @ t=0.14           u (1) @ t=0.16           u (1) @ t=0.18           u (1) @ t=0.2            u (1) @ t=0.22           u (1) @ t=0.24           u (1) @ t=0.26           u (1) @ t=0.28           u (1) @ t=0.3            u (1) @ t=0.32           u (1) @ t=0.34           u (1) @ t=0.36           u (1) @ t=0.38           u (1) @ t=0.4            u (1) @ t=0.42           u (1) @ t=0.44           u (1) @ t=0.46           u (1) @ t=0.48           u (1) @ t=0.5            u (1) @ t=0.52           u (1) @ t=0.54           u (1) @ t=0.56           u (1) @ t=0.58           u (1) @ t=0.6            u (1) @ t=0.62           u (1) @ t=0.64           u (1) @ t=0.66           u (1) @ t=0.68           u (1) @ t=0.7            u (1) @ t=0.72           u (1) @ t=0.74           u (1) @ t=0.76           u (1) @ t=0.78           u (1) @ t=0.8            u (1) @ t=0.82           u (1) @ t=0.84           u (1) @ t=0.86           u (1) @ t=0.88           u (1) @ t=0.9            u (1) @ t=0.92           u (1) @ t=0.94           u (1) @ t=0.96           u (1) @ t=0.98           u (1) @ t=1
0                         1.5                      0                        0                        0                        0                        0                        0                        0                        0                        0                        0                        0                        0                        0                        0                        0                        0                        0                        0                        0                        0                        0                        0                        0                        0                        0                        0                        0                        0                        0                        0                        0                        0                        0                        0                        0                        0                        0                        0                        0                        0                        0                        0                        0                        0                        0                        0                        0                        0                        0                        0                        0
0.05                      1.5                      0.9500208315940212       0.9973055302490154       1.0139325838230915       0.856111732561964        0.5718418390874033       0.31435579692276505      0.15210591189247577      0.06426875543655985      0.013686717948406178     -0.01948546011017777     -0.0366820157197735      -0.03265683201349188     -0.007955205890205755    0.01710635399997889      0.015932418390850894     -0.018902204164307945    -0.062210816952713785    -0.07391504363730748     -0.04688079217724518     -0.02121887953157908     -0.04114086222506775     -0.09284398003865266     -0.11354367577007246     -0.08493456638586894     -0.06565698775970641     -0.10036175413529931     -0.145007765455703       -0.14612864066299164     -0.13182649105645936     -0.14024007348775164     -0.15802531895126165     -0.17020687300162488     -0.1860664377368423      -0.2007343877350643      -0.19779254400429466     -0.19995027668958326     -0.2019749320113514      -0.2204779126088254      -0.24617942799006617     -0.21580846643602003     -0.20274128517707035     -0.2375932542688655      -0.20786426667583152     -0.16104613562391437     -0.20639024224433694     -0.22007990099332247     -0.12020275153286811     -0.004777207593804594    0.0022284988191138104    -0.09625147637283742     -0.10151708579064653
0.1                       1.5                      0.9001665834945424       0.9042734386481002       0.8884639021888111       0.8713959402974268       0.9217584597637863       0.9819061497475187       0.9165073972466007       0.7118455204312674       0.4696213000280003       0.2725851173859398       0.13451610268841982      0.03494979325545314      -0.039536719544719094    -0.08166817887587226     -0.07998011832971552     -0.04787552614026587     -0.02594876660674083     -0.0449174364811151      -0.09080060298779985     -0.12241783002691523     -0.1249168891029448      -0.12323312886812872     -0.13626208455414587     -0.15481107242100592     -0.1754749216229998      -0.20258812476485855     -0.2147948875885014      -0.2065301439951908      -0.22413429417634706     -0.2723441832699251      -0.29414721246119935     -0.28379267485742465     -0.28871478078108104     -0.31588376762248327     -0.32246865028902366     -0.35646934640486705     -0.34493255839866627     -0.3291900583035846      -0.3766234569554267      -0.3288133202567063      -0.30045896109759745     -0.38030387691216594     -0.33558330902973565     -0.1975636261049614      -0.19702505401951875     -0.2100917997832975      -0.21767320560354578     -0.22972070326069408     -0.18376087748944964     -0.20246454682071455     -0.16133213075097044
0.15000000000000002       1.5                      0.8505618675428541       0.850139195018882        0.8456706668544623       0.8488733433384247       0.8506998384248272       0.8166922361832449       0.7949095020137206       0.8473410588513591       0.9059175488036003       0.8564658695857623       0.6880586843372393       0.47654341014026724      0.28540727313671005      0.12778790068946788      -0.0026322624006711484   -0.09646757751481125     -0.13610201561886717     -0.13067399303398197     -0.1190302982077904      -0.12686948140551713     -0.14491552801900293     -0.16474969001006115     -0.19730272478265795     -0.23349269493372032     -0.24470835024672358     -0.24351079804908235     -0.26407053680137904     -0.3000547741079429      -0.3258320416094897      -0.3324697257834134      -0.33437903906953775     -0.35984978501615905     -0.3894428983015171      -0.4196227377139364      -0.371951619047834       -0.41992318417276453     -0.41992309101050074     -0.36078390733486737     -0.44142071081531825     -0.4082193166120516      -0.3056369796004658      -0.3001250841446205      -0.31084483468018814     -0.3176245257961816      -0.3951572418567059      -0.30014692264285914     -0.25556567835164773     -0.32837725482905156     -0.1963811036678162      -0.14254423478513203     -0.25887083615940476
0.20000000000000004       1.5                      0.8013306691992295       0.8005755846862471       0.7984751912714714       0.7965465654926298       0.7878956244919928       0.7814260805372494       0.7900379297617637       0.7735198727593953       0.7248287681044757       0.7201139264131808       0.779385644418421        0.8111378321117713       0.7377104948720606       0.5765361489394092       0.3864216033274877       0.2002078784820002       0.03016864857666727      -0.10092829136884701     -0.17384659707921601     -0.20435999288616669     -0.22114549743915515     -0.22704910837423478     -0.22392432578061894     -0.23845600914331727     -0.2767403164753404      -0.31520246428324084     -0.3374121760438765      -0.350347619119912       -0.35529897727019205     -0.37606854708062953     -0.400500132227975       -0.43217595324853897     -0.3922038255357073      -0.450221952074714       -0.3996373535828902      -0.43505067812718223     -0.4654960855252978      -0.3642577053110155      -0.3483873447726984      -0.3429186369068017      -0.4061931085568982      -0.41321464080007475     -0.4097742705904233      -0.3431635871491647      -0.3763093320294807      -0.3246866344593914      -0.2560750468025547      -0.3362056497039516      -0.37799942820852966     -0.48336760534683976     -0.5509962665991843
0.25000000000000006       1.5                      0.7525960407353303       0.7518109519378322       0.7497030335942753       0.7460025219196299       0.7403167380592575       0.7364371468587927       0.7255645395594335       0.7100387556304394       0.7139497534571178       0.7101070419850155       0.6630362631151056       0.6251941702297308       0.6535094576416063       0.7013178370771679       0.6829627215708858       0.5765736678466321       0.4127474880648555       0.22114530272851082      0.03206631216367059      -0.11623393964560254     -0.2125451965740554      -0.27559104483603214     -0.3106592357982664      -0.3160518856692         -0.3122001638964232      -0.3257224521596657      -0.3413681826109237      -0.3833592967245233      -0.4012186745757022      -0.43077342923188255     -0.3952602349118552      -0.4503372032689104      -0.38478619394019997     -0.46208585244227507     -0.4310582248141646      -0.3594466406552445      -0.34545774897312426     -0.40119556096620324     -0.4623531585083888      -0.41063771224143963     -0.45089052515040023     -0.3462163017610652      -0.4196241031774329      -0.36494317829493295     -0.2996425671596572      -0.4165061625424         -0.5033727743990772      -0.5597981193544956      -0.5878591413248994      -0.6593230521482756      -0.6422892647819143
0.30000000000000004       1.5                      0.704479793327228        0.7036609215457088       0.7013718824904396       0.6974478346981836       0.6922781289504744       0.6852736693793797       0.6756834839992097       0.6692550503459458       0.655964059981856        0.6342325082241563       0.6318388542424082       0.6310705739129022       0.5887390896196375       0.5389255745338786       0.54393492208526         0.5838444159179483       0.5875834459952687       0.5184883033141939       0.3786264616497445       0.19092995924088607      0.0026322828869320973    -0.14843101675189385     -0.26325909417940074     -0.34011491168288355     -0.37272897525539583     -0.39544371713396737     -0.37096896924068395     -0.39740003785921507     -0.3629872665851801      -0.44039771480935325     -0.38513029132104476     -0.45367919069285567     -0.4081697275614123      -0.35212933093427073     -0.342754522646879       -0.4418951085116208      -0.447687977294176       -0.4223554581563713      -0.42357838293566646     -0.38764692408524465     -0.44147645795645435     -0.33973616776354953     -0.384730076422085       -0.431061859271          -0.541553515893112       -0.6196053052005289      -0.6130024959401369      -0.6690986302392106      -0.6945029667609779      -0.7103961247454468      -0.7173104345413658
0.35000000000000003       1.5                      0.6571021925324929       0.6562500366801122       0.6538437026185977       0.6498245936982955       0.6442826225022137       0.636882345288057        0.6286301637112756       0.6179497478897048       0.6047141296842625       0.5958322264856414       0.5788575271949011       0.5530795301401721       0.547241338349539        0.5442636194595797       0.5026794740155233       0.45115762064683057      0.44517036437425117      0.475232926303751        0.4873222387148711       0.436506060894335        0.308553803852731        0.1335372616684818       -0.0476574823494265      -0.194857835261012       -0.30200437827262716     -0.39620823132505345     -0.3889645776965236      -0.449717755579906       -0.3691799055265042      -0.4031951883550004      -0.37579505534084695     -0.33268686563868416     -0.3590628777693015      -0.43859613374815776     -0.43439518480982003     -0.43111938278619544     -0.4006544414351967      -0.4036102871873142      -0.40401168161128864     -0.40262131907154913     -0.34231342168519335     -0.4493808484172151      -0.5926903385466329      -0.5692642660021046      -0.6488743629384187      -0.6495724859700314      -0.7248082028750124      -0.7185104277273295      -0.7484158161447799      -0.756963260121212       -0.7826242464407983
0.4                       1.5                      0.6105816576789184       0.6097053170711256       0.6072284992456696       0.6031120939718791       0.5973578299252589       0.5900077498882741       0.581106434519706        0.5702900083449476       0.5591962882693445       0.5445274194713395       0.5288155878103654       0.5178683358177903       0.4959970098699804       0.4689156391572762       0.46325906654427174      0.45548960099358027      0.4123939772222323       0.36453240230967         0.35650998565185144      0.3836935718336217       0.4024495740056143       0.3571163744764226       0.22195988559855986      0.07812944965897106      -0.09234169049738915     -0.23939229940909748     -0.3104141975131171      -0.3847840814210098      -0.41064546268643043     -0.35206865532522247     -0.3396529737638607      -0.3872611515239992      -0.4188708326848297      -0.40616671400016346     -0.40659499518517006     -0.41853806687898043     -0.36692065754834213     -0.38289954273126664     -0.3703150120059271      -0.4467429867017394      -0.5363960119257806      -0.5836624177564896      -0.5959336396849484      -0.676012738227847       -0.6892104078587126      -0.721312876276689       -0.7506312792757153      -0.7805809004901201      -0.7061131940330646      -0.8395501362420116      -0.7524123922706845
0.45                      1.5                      0.5650344658761516       0.5641458628721489       0.5616356617025176       0.5574668348756823       0.5516513434407005       0.544242747956324        0.5351852787467345       0.524782707085512        0.5125816113144432       0.4991341549773632       0.48545758959269236      0.4671672221967711       0.45135976694586144      0.43817724441675826      0.41163156854897487      0.38803509383254176      0.38513914708651703      0.3718314480690931       0.32691853813860433      0.28507033784082886      0.29523914814104685      0.32943978163980386      0.32261111794235275      0.3125306218443599       0.15513862276857807      0.045820894384377156     -0.12434445105730807     -0.20367238988075903     -0.26700494648990414     -0.3849344488485925      -0.4424691714184275      -0.4147807334937439      -0.4139229339084127      -0.35794693072267236     -0.3465732603454838      -0.3708721474519098      -0.38667925458602426     -0.3891649220340068      -0.49692693862976317     -0.5380023890322829      -0.6107311843200268      -0.6487852208472167      -0.6880294708083706      -0.6559775464991237      -0.7266914360869239      -0.7740289865866097      -0.7559123769845957      -0.765590604229258       -0.7804951858397917      -0.7434730527612811      -0.7950610976836154
0.5                       1.5                      0.5205744613831801       0.5196866965282742       0.5171804842547376       0.513022181588834        0.507236869283626        0.4998618925194183       0.4909506321259824       0.48056425295891314      0.46873578628760604      0.4558655351016581       0.4410346866522353       0.426567524380068        0.4103774469967965       0.3909175379778483       0.37784017197643127      0.3617519496896688       0.33482179777473914      0.31979028930650505      0.316030397601582        0.30022052533456606      0.27809896603643275      0.23316893521307627      0.25271975010408737      0.32452844331813235      0.31397782787259654      0.25523719509513676      0.2044465941461017       3.7806073358253564E-4    -0.1977186554127552      -0.2930479999867761      -0.36033046402174457     -0.38728405251868486     -0.39903436832890216     -0.3540506366058173      -0.36248578868082326     -0.3469505432098346      -0.42439569794132853     -0.4898362743669611      -0.5569255205845749      -0.6371451592740083      -0.6199124190900607      -0.6974179321350628      -0.7159879666210489      -0.7208704733461084      -0.71671555253651        -0.7544602667206984      -0.7825458836086283      -0.7375980712063266      -0.7742689203216241      -0.7486437586003646      -0.760242862733642
0.55                      1.5                      0.4773127710569236       0.47643977533034204      0.4739770887665802       0.46989660823837975      0.46423231742424353      0.45703193594250763      0.4483686601676679       0.43830002138925317      0.42700727622192913      0.41440726151466734      0.40110311357519857      0.3865831890167093       0.3713680137341806       0.35747145426145854      0.3400932087580856       0.32526384554094284      0.31626407520651667      0.2943691101767634       0.26676399987134375      0.2810332836044872       0.30335363918782765      0.2461354843452434       0.24848661166059025      0.22362636378309067      0.32065362314969653      0.3457596600069448       0.2684950832745226       0.17235322520942548      0.03337528178648545      -0.08846791759100714     -0.19050598681652695     -0.3008390508675093      -0.3438136666016659      -0.3913586166942544      -0.36808351057214767     -0.47852733166356826     -0.5008349478983677      -0.5235084464704078      -0.5765809826142595      -0.6533101906467702      -0.69147475227892        -0.701961464172514       -0.7178834550853256      -0.7501726178060427      -0.7408617460384758      -0.7400946523062536      -0.7416569998389119      -0.7407725434008992      -0.7518762456713488      -0.7433387462724984      -0.685607703581816
0.6000000000000001        1.5                      0.4353575265929554       0.43451394630626095      0.4321363928199916       0.4282038476255511       0.4227593806684895       0.4158656527503069       0.40760475440918226      0.3980863604304842       0.38742096772376633      0.3758126864326444       0.3633546720787409       0.3503379497176466       0.33728860701038715      0.323400022938301        0.31196913535973925      0.3004634576669702       0.28522330778137434      0.2690411407260642       0.26018750842894445      0.27863088856185303      0.26167706767648946      0.28553696564859277      0.26614241426785956      0.29410288532622747      0.22387808582917937      0.20257654885032128      0.25779048787061354      0.2863961433645281       0.23386880294386023      0.12231156527131334      -0.015484043582156314    -0.15182233613082638     -0.2520381882159386      -0.3427221910871798      -0.4701219392279025      -0.5267999016264769      -0.5737161469651325      -0.5781669915611171      -0.6256376471759579      -0.635744920959019       -0.6908940125523038      -0.6601597984655453      -0.744370528715291       -0.7566012552644806      -0.7303317625923565      -0.7064819955398705      -0.7702135086772722      -0.7234504317831674      -0.6815600509058         -0.7766383889863262      -0.6653537548949637
0.6500000000000001        1.5                      0.3948135942525768       0.3940146999230721       0.39176566167754573      0.3880539359009745       0.38293280088658194      0.3764795066162831       0.36879516474685675      0.36000936754651913      0.350275526616954        0.33978872643911084      0.32874808790474624      0.3174917141540888       0.30614938905648825      0.2960452506312914       0.2865238516290765       0.2779828917325151       0.26395388774947415      0.24277796304052954      0.2621159018685985       0.27990393043165235      0.27088143220245214      0.28439234581289585      0.2984995084681332       0.22630173527285488      0.19973068510424338      0.19911110490519796      0.2192626027944228       0.2624187507807365       0.28050872012297307      0.23750684178051862      0.16211897772610956      0.06495088060616913      -0.12094220385105031     -0.2968279521385487      -0.4459892424581324      -0.5340786769930757      -0.5972898122268901      -0.6463336384697983      -0.6429098809870041      -0.6660789516571658      -0.6472432959281224      -0.6707763677635675      -0.6930547276446491      -0.7631013938337248      -0.7170114983127855      -0.6692089395607371      -0.769488453540722       -0.6911169131694702      -0.721749227630584       -0.68748293827126        -0.6371178637723246
0.7000000000000002        1.5                      0.3557823127517768       0.3550439043763872       0.3529682512108577       0.34955265548016684      0.34486154329272534      0.3389876266081869       0.3320529037228041       0.32420966214252284      0.31564758847100477      0.30658031000462727      0.29728284761101564      0.28797260007898645      0.2793358011572013       0.2718917211390603       0.2661171401020495       0.25611544726498053      0.23787879001928108      0.24585693783748205      0.2713162185789985       0.2569820704783734       0.31626544044978183      0.28599390032345406      0.19800207358582558      0.19234645621917199      0.22513081059261153      0.2517330673991733       0.22824221118105859      0.19914881898022896      0.2193643802458519       0.24144016179387598      0.24208394478632864      0.1440392271333214       0.015639567957677746     -0.16801709354155506     -0.34145152276071805     -0.4711264716419191      -0.5701208335293801      -0.6456509746516573      -0.6710272396494599      -0.6942647193341237      -0.6472217783295302      -0.671231513895499       -0.6561846435227295      -0.7069677147249634      -0.6877607478760813      -0.7104028513886846      -0.6743675283190971      -0.6737024869410071      -0.7059936670879535      -0.7165070359639178      -0.6317779058890169
0.7500000000000002        1.5                      0.31836123996721766      0.3176995472150527       0.3158433476775447       0.3128011346746933       0.3086492561890298       0.3034970159435207       0.29748778953581906      0.2908010798486327       0.28365435992538934      0.2763118324041423       0.26902232459629627      0.2619855406000949       0.25565201756976985      0.2508133888355911       0.24440427311211504      0.23172672471457542      0.23387194141480397      0.26481884980497633      0.2501688432679805       0.30993974101763067      0.25382081740725143      0.20646346822946643      0.21201321373821908      0.21955648040823586      0.22458580923423557      0.23337819070664603      0.23985972845827536      0.2070977894235207       0.17262466780956406      0.21084134090069334      0.18763086593075773      0.16276102507260876      0.08728832677515501      -0.0379931057887027      -0.20769621889950948     -0.37731885684890143     -0.49897133874140415     -0.6226698107730397      -0.6844225239191778      -0.6876537647998648      -0.6703516310228235      -0.6488479944190229      -0.678772210096224       -0.6891076394658906      -0.6407778430388088      -0.6823366039384335      -0.7079747180068748      -0.6041127532637247      -0.659104181172327       -0.6408671749722291      -0.6510131102394472
0.8000000000000003        1.5                      0.2826439090923502       0.2820754871282702       0.2804857093954111       0.2778955598383194       0.27439395897995206      0.2701076837963389       0.2652025467156305       0.2598855948563237       0.25440745204428433      0.24907686253354547      0.24412072817561725      0.23913032138615065      0.23391600489483694      0.22821428980687825      0.22024167866018357      0.22402862819560676      0.25823629420079064      0.24779381845430437      0.29935514925136486      0.22826658201064004      0.19505599872035476      0.20475214104806735      0.2327046575631877       0.25378389465221013      0.22225431705402907      0.1967474298838329       0.19782869584157228      0.21331771894938337      0.20291244703371258      0.11432780748640026      0.12051733434694983      0.1098584672947386       0.05671471664634935      0.003980268955018078     -0.10081002417177631     -0.269758283029499       -0.40984734163749065     -0.5447251316455103      -0.605197761235894       -0.6488352953784272      -0.6599105182925258      -0.6949618979468534      -0.6801210898533474      -0.67941830910257        -0.6219555046597994      -0.6764258075807905      -0.6636303911796194      -0.6590504662697758      -0.6561520814851303      -0.5849343401917902      -0.6181238173403374
0.8500000000000003        1.5                      0.24871959485314252      0.24826121640678356      0.24698541877836017      0.2449269124532246       0.24218770789420482      0.23891269731893391      0.2352909569838909       0.23155767729291862      0.22799610790083658      0.22499953364485573      0.22276989265374617      0.2193094201627451       0.21248865742017015      0.2053242875912477       0.21225563069491923      0.24818132893202643      0.24520920048138173      0.2893642244844775       0.21210729935539788      0.18933581330385765      0.202596632627134        0.22861708824349866      0.2307576550974703       0.2482802136229982       0.2299430745959755       0.20197417907116857      0.20148527311283598      0.21388403447979634      0.17538978984680434      0.14058375371284723      0.060868468780068116     0.03429765856776498      0.026409178268710264     -0.008428181895578618    -0.04708516861938645     -0.1328752837875807      -0.27520324000197594     -0.38272606137676396     -0.48976547686871297     -0.5671226754810188      -0.6584129669535607      -0.678224790708365       -0.6618154668417265      -0.6444469157879922      -0.645138020562579       -0.662837620490798       -0.5954157532993166      -0.6373739985600473      -0.6853239939472874      -0.5611671739382277      -0.5905889474198911
0.9000000000000004        1.5                      0.21667309036775642      0.2163416345951122       0.21542764696829195      0.21398071932612178      0.21211631756874147      0.20999786665828937      0.2078381261024506       0.2059009194676039       0.20449521955526787      0.20420751147688496      0.20574286750119392      0.20446772883504152      0.19709163415616457      0.20123473506850356      0.2335301928784106       0.23617321746277659      0.2765892725353098       0.20116645859709714      0.18982730590379196      0.2080952601164952       0.22687326045947215      0.23036071166635955      0.21967747179726044      0.2272280798918841       0.2349625814415066       0.24244192849580787      0.20402326308333416      0.1516683597694458       0.15453704992708783      0.12348950452354322      0.05741920033911665      0.0066817010962448705    -0.012919270250817617    -0.027361525519232387    -0.023145233687208847    -0.06070166865074804     -0.12771974878590295     -0.24401407788034013     -0.3691569368466174      -0.4701869386180964      -0.5717645948521582      -0.6328856748411251      -0.6234473259933164      -0.658712974142244       -0.6232812338495357      -0.6215853330822829      -0.5922117634020132      -0.6010700344973017      -0.6158761339490394      -0.6096654429676599      -0.5704401442993599
0.9500000000000004        1.5                      0.18658449520791298      0.18639683387724218      0.18589243208829137      0.18513681789949013      0.18425910760367176      0.18344143175176583      0.18292029486956418      0.18298858810488144      0.18394860284008027      0.18673659244348123      0.1947980081618756       0.20176789980006044      0.20341918985216703      0.21878687952579653      0.21849075075458535      0.26038013857112274      0.1907707438854417       0.18806270546544773      0.21045099234509598      0.22733702881169804      0.22589986707817922      0.2306928057787442       0.19951875963346272      0.2153579705866178       0.2323475970532793       0.19867068401925378      0.15625005693210064      0.15884562952163245      0.1220395749329587       0.07174005784793927      0.052273535082173334     0.026010057483755695     -0.026870919736429813    -0.046274659850043524    -0.036587044748002034    -0.020203704006797725    -0.06081548447843329     -0.11834598242571531     -0.26093503394297957     -0.3634150210561291      -0.4570688217446333      -0.5389652844040709      -0.5797040296405498      -0.6671528143810823      -0.5934852993666689      -0.5625977884198075      -0.6092363264302909      -0.5255810018614054      -0.5652250994721069      -0.614511901175652       -0.553264490345974
1                         1.5                      0.15852901519167797      0.15850189732095235      0.15845447107498511      0.1584691389251957       0.15868867111748666      0.15931379839768464      0.16060444246899344      0.16288584747077553      0.16635124066968057      0.1719074242919998       0.19029750899096645      0.2144702584936536       0.21732043167632234      0.19861631874848845      0.24104926463102005      0.17953829463569673      0.18299070493516179      0.20605227929697525      0.21671654826022974      0.21690723229370656      0.21543157460432183      0.21873692402172612      0.22152234278697347      0.1788374411424825       0.20110135566225515      0.15449882661402647      0.13247653769596626      0.15405436574334178      0.11658149779292862      0.04343266331699491      -0.028577408895326336    -0.030235901449891692    -0.049960346733736886    -0.11010267375225222     -0.10887546811105782     -0.10978892943265647     -0.09642185670425349     -0.10126871127234564     -0.1258043613393058      -0.224299145956105       -0.3289727141428975      -0.48039837815492437     -0.5109819668081023      -0.5702204046853565      -0.591701673082687       -0.5891747782051309      -0.581016119374606       -0.5577392537579514      -0.5439935784460544      -0.5365442691528305      -0.555054382588335