% Model:              Q8final.mph
% Version:            COMSOL 5.5.0.292
% Date:               Oct 22 2021, 17:56
% Dimension:          2
% Nodes:              41
% Expressions:        51
% Description:        Dependent variable u
% Length unit:        m
% X                       Y                        u (1) @ t=0              u (1) @ t=0.02           u (1) @ t=0.04           u (1) @ t=0.06           u (1) @ t=0.08           u (1) @ t=0.1            u (1) @ t=0.12           u (1) @ t=0.14           u (1) @ t=0.16           u (1) @ t=0.18           u (1) @ t=0.2            u (1) @ t=0.22           u (1) @ t=0.24           u (1) @ t=0.26           u (1) @ t=0.28           u (1) @ t=0.3            u (1) @ t=0.32           u (1) @ t=0.34           u (1) @ t=0.36           u (1) @ t=0.38           u (1) @ t=0.4            u (1) @ t=0.42           u (1) @ t=0.44           u (1) @ t=0.46           u (1) @ t=0.48           u (1) @ t=0.5            u (1) @ t=0.52           u (1) @ t=0.54           u (1) @ t=0.56           u (1) @ t=0.58           u (1) @ t=0.6            u (1) @ t=0.62           u (1) @ t=0.64           u (1) @ t=0.66           u (1) @ t=0.68           u (1) @ t=0.7            u (1) @ t=0.72           u (1) @ t=0.74           u (1) @ t=0.76           u (1) @ t=0.78           u (1) @ t=0.8            u (1) @ t=0.82           u (1) @ t=0.84           u (1) @ t=0.86           u (1) @ t=0.88           u (1) @ t=0.9            u (1) @ t=0.92           u (1) @ t=0.94           u (1) @ t=0.96           u (1) @ t=0.98           u (1) @ t=1
0                         1.5                      0                        0                        0                        0                        0                        0                        0                        0                        0                        0                        0                        0                        0                        0                        0                        0                        0                        0                        0                        0                        0                        0                        0                        0                        0                        0                        0                        0                        0                        0                        0                        0                        0                        0                        0                        0                        0                        0                        0                        0                        0                        0                        0                        0                        0                        0                        0                        0                        0                        0                        0
0.05                      1.5                      0.9500208315940212       0.9985383140348167       1.020761828478054        0.8586059154268211       0.5694800682538746       0.3112133019071857       0.15033110638649483      0.06344003315122888      0.013214334390730489     -0.019919006299039       -0.03746332990775562     -0.033026615044716795    -0.00770310485003363     0.018133525274786975     0.017067793776890713     -0.01901449076096545     -0.06346055261133154     -0.07515182677854984     -0.04638292633848856     -0.01939372342885965     -0.040666160627644936    -0.09437790910050473     -0.11511010879174059     -0.08387734973496767     -0.06374631854173868     -0.10090361588496183     -0.14660779567522883     -0.14608009697464172     -0.13088814589621242     -0.14029320568312068     -0.15838195845344466     -0.16969232164037493     -0.1864189222144093      -0.20141954774506587     -0.19725866396746228     -0.20050179656377187     -0.2006502186981019      -0.22082004953922607     -0.24910435278461265     -0.21344482062296982     -0.20134844838567809     -0.24164218400366091     -0.20674207496298758     -0.15659812593891714     -0.2099986087122525      -0.22421754334328878     -0.11950286155691472     7.860576837350093E-4     0.005561506987622683     -0.10303777237633488     -0.10508372848133665
0.1                       1.5                      0.9001665834945424       0.9051857233313373       0.8880083933094493       0.8684800046560869       0.9226494684825514       0.987107635589681        0.9202838245451407       0.7117479371469727       0.467665098569555        0.2708797033791875       0.13360399963992273      0.034309755536283425     -0.040663985057940874    -0.08309721656603142     -0.08066280216523217     -0.0471075305893869      -0.024444274153310044    -0.044390417282465226    -0.09171466198677714     -0.123287880622544       -0.12469587248383811     -0.12268000399833824     -0.13628227111376695     -0.15471067815724712     -0.17520442236810393     -0.2034122179255881      -0.21540236213425815     -0.20497871179125648     -0.2235703672177175      -0.2737234728698053      -0.29512497250397024     -0.282393427117847       -0.2884744540606584      -0.316930068565138       -0.3204035670080913      -0.36018976227959637     -0.34297948055380245     -0.3269895206324391      -0.3828700769411696      -0.32460000215844115     -0.29674512149431886     -0.38875209502612973     -0.3362273600158046      -0.19038898670337512     -0.1999353142725817      -0.20815069329799196     -0.21925565424995028     -0.23146020187567456     -0.17962066979362515     -0.20755690508407929     -0.16647658202180965
0.15000000000000002       1.5                      0.8505618675428541       0.850373094893787        0.8451037200140374       0.8492371837440944       0.8522323141403703       0.8153806969811725       0.7921244188687739       0.8483424240528374       0.9102667858638311       0.8597390322112723       0.6884480835343509       0.4754496050121359       0.28443734876578675      0.12706115452742917      -0.0038954608459220714   -0.0982933600158577      -0.13726140641972862     -0.13038956721752795     -0.11828002869045164     -0.12678480751407412     -0.144886271400914       -0.16416275845988465     -0.1973979576540361      -0.23463320924372835     -0.24469781147410608     -0.2424940322878521      -0.26397519051104157     -0.3003305129888066      -0.326901319403158       -0.3317739946462574      -0.33410018302124594     -0.3592664448838694      -0.3900325364399725      -0.42321570425587174     -0.36490928352405083     -0.4265430059272542      -0.4191345477134417      -0.35421733210590156     -0.4505194136080102      -0.4072021481517999      -0.30148489676199913     -0.30160285283295013     -0.3093047478409795      -0.3151479478961693      -0.40609395888176847     -0.2904772618934961      -0.256151314189239       -0.3370316710540581      -0.19001528389368583     -0.13449208761844703     -0.2664196615768951
0.20000000000000004       1.5                      0.8013306691992295       0.8006397430832235       0.798400178491877        0.7969450519645996       0.7875642763910273       0.7808555730442744       0.7915125641881999       0.7743023594007167       0.722439816162434        0.718323013609996        0.7814334822895677       0.8148650500603788       0.7398665682468578       0.5768043842554386       0.3861364204441741       0.19965580728670784      0.028706416147866155     -0.102839985079515       -0.1748162117317341      -0.20449067248325212     -0.22161308588970083     -0.2272474229197561      -0.22295350600076067     -0.23797630961442767     -0.2768653142875346      -0.31580072346053184     -0.33786220646054493     -0.34991825762784334     -0.35564332251888203     -0.37461554957312493     -0.40203663747384283     -0.43407143251112135     -0.386877057365691       -0.45846794330647284     -0.3904399466331891      -0.44058494308809815     -0.4690390856116722      -0.35890801672310385     -0.3498978854876499      -0.33778196741821925     -0.412705335733165       -0.4108271633545734      -0.4123493799268186      -0.3386481574971484      -0.383234419121728       -0.3191721552256512      -0.2558987392695998      -0.3328764050331192      -0.3812171186568535      -0.47909744078358446     -0.562626971584456
0.25000000000000006       1.5                      0.7525960407353303       0.7518530358171701       0.7497555642856375       0.7460700685439074       0.7401703110089349       0.7368727818485973       0.7255552954938606       0.7091024007737259       0.7147795562816066       0.711711028160162        0.6618481202784595       0.6227462029070138       0.6537618469750182       0.7041377625942434       0.6855428934322669       0.5779124635037041       0.41338236594664446      0.22076006317529911      0.030438726232757646     -0.11776475464505258     -0.2133522674984195      -0.27643514332590047     -0.311384051106634       -0.3165651865741842      -0.31074039976545187     -0.32641182647071343     -0.3403812926718713      -0.3837156232605117      -0.4022386085904107      -0.43125532442268766     -0.3925581014417913      -0.4565799802732513      -0.37493304368365105     -0.47254792259456097     -0.42760405080046654     -0.3583632547660405      -0.3434140011850994      -0.4022083359461482      -0.4659198372616381      -0.4022434612032389      -0.46700107177293776     -0.32785114938072785     -0.4305412861928911      -0.36729463833787734     -0.2863394501176373      -0.4205849043109537      -0.510316873674225       -0.5498167362000833      -0.5990327558375427      -0.6501894529890305      -0.6510478972794425
0.30000000000000004       1.5                      0.704479793327228        0.7037048220779634       0.7014282782240469       0.6974650608953751       0.6923625557966223       0.6853518338826797       0.6754678827647129       0.6697141804771679       0.6561259833865571       0.6332218038705363       0.632262816844257        0.6327892786056681       0.5882594656770269       0.5366643229310767       0.5434169379207865       0.5856712112849674       0.589935076322849        0.5205619041591625       0.37987830466308836      0.19034989203774183      9.628342568595702E-4     -0.14899734067644516     -0.2641454851221095      -0.3430915288398322      -0.3700278415444796      -0.3999187359325345      -0.3668078465795253      -0.4007529428103315      -0.3583070777942809      -0.446570822819028       -0.3780679359891516      -0.4614312046703296      -0.40560023185431804     -0.3510112415181084      -0.3384403396550026      -0.44682945541095825     -0.4529489106956925      -0.41639345708066056     -0.4240250485829662      -0.3779454212530288      -0.46561791126708435     -0.3157495620281213      -0.3878474953103717      -0.44080564844352693     -0.5308724684209699      -0.6270450552825768      -0.6100282538749071      -0.6716534340232307      -0.6949013829989288      -0.7055981894927086      -0.7245614296504141
0.35000000000000003       1.5                      0.6571021925324929       0.6562967691747462       0.65389418234105         0.6498640568135571       0.6443538578943124       0.6368703641537602       0.628763958307418        0.6179934402951643       0.6044658897832156       0.5963630937256158       0.5789976210871266       0.5520595737722557       0.5476122879771376       0.5458625859154747       0.5023626893244114       0.44924241881349075      0.4444325074335979       0.47641178109087395      0.48978731423570554      0.4386535903229714       0.3087215412061255       0.1348008055427697       -0.04881794276639971     -0.19954850565678622     -0.29560122436072755     -0.407647884400991       -0.37898940510117135     -0.4606117895583668      -0.35991490379906        -0.4085996548663934      -0.37646768458412655     -0.3260346818742922      -0.36029128202028626     -0.4427257723815368      -0.43363575049967135     -0.4310771934119063      -0.4128709581347177      -0.3884923442519199      -0.40116844240069294     -0.4034927201330008      -0.3459886385782761      -0.4365029911719626      -0.6036806259337035      -0.5722046566363488      -0.6465404405094943      -0.6424038752854802      -0.7308773012141687      -0.7261186265785311      -0.7366979685652277      -0.7633890464778301      -0.7768580898363981
0.4                       1.5                      0.6105816576789184       0.6097537126018481       0.6072777586786461       0.6031614098880632       0.5974036269019729       0.590055461175682        0.5811718965403172       0.5702555507912797       0.5594004766585537       0.5444531301143863       0.5286201799297002       0.5185013384798864       0.49591063923052403      0.46794459964652463      0.4638180442283152       0.4567943624967238       0.41199797280621403      0.36327776846737386      0.3561614228237569       0.38331418145907714      0.4032527396804039       0.36433590167461183      0.2192318336991418       0.07509605296516304      -0.08341111328874326     -0.2542922597748524      -0.3006807929029423      -0.3911971895214877      -0.41316671891432283     -0.34595406852855115     -0.34324125438817255     -0.38146875561064136     -0.42304894177569735     -0.41007939138294336     -0.4049761425125316      -0.42713663046236994     -0.37171671527587385     -0.36497190755032316     -0.35921488546062774     -0.44811858360659895     -0.5330458183607898      -0.5857940340935597      -0.5972921047532189      -0.6852208511027502      -0.6851009432555618      -0.7150846561375914      -0.7432528177079458      -0.82080681816285        -0.6675198513785479      -0.8350179788410979      -0.7913680601228077
0.45                      1.5                      0.5650344658761516       0.5641949769442611       0.5616851613539561       0.5575166097574605       0.5516966692374548       0.5442971476527815       0.5352126725558964       0.5248594648093515       0.5125894548378709       0.499140030735406        0.48568441440214627      0.4669090765078852       0.45137032328613974      0.4387894082917058       0.4111098554691956       0.38722607248620894      0.38616377251720446      0.3740222597097719       0.3272238143120254       0.2791624502082482       0.29318370005894356      0.34083134294616685      0.3143011612690749       0.3188382814597167       0.1582598944086608       0.040915728767710144     -0.12832746106551335     -0.1987538776704669      -0.2687502626201478      -0.38505198650156697     -0.44744064027584435     -0.40461822997368513     -0.4218091705696861      -0.37104081694488306     -0.33935792376046003     -0.37609827625453296     -0.3785275121649822      -0.3806080467623856      -0.48478512930602274     -0.5152445273951304      -0.6038825682241417      -0.6484400665024339      -0.7146362856647852      -0.6518174824034012      -0.7119933820276835      -0.7857705041111026      -0.7542003692477505      -0.7671714243500485      -0.7896927000546057      -0.7252324097244929      -0.8057691355452975
0.5                       1.5                      0.5205744613831801       0.5197357300464001       0.5172297994910144       0.5130707619848157       0.5072840375959059       0.4999070431596439       0.49099526652648057      0.4806060535428512       0.46876012847650456      0.4559504765033803       0.44095780628400094      0.42670225986082183      0.4104418297060068       0.3905019627898161       0.37802929623391396      0.36200881655998757      0.3351138211050356       0.3227899453479917       0.3168200354175687       0.2908201174158578       0.2808541100817856       0.24181743884033463      0.24041218889457663      0.33394306280763913      0.31539699450333947      0.25063857806563006      0.2056241533605241       0.004112930237589256     -0.20165861431308799     -0.29371855245446543     -0.35841651666931795     -0.38410617246440304     -0.41397970773444204     -0.3618867921648008      -0.3466241487667349      -0.32180971549012566     -0.4369016732691721      -0.4842277065076631      -0.5121583067471889      -0.6284586929950283      -0.5842236025307401      -0.6935904836475599      -0.747092812352441       -0.7356925326905425      -0.6978324308508889      -0.7388078153062375      -0.8216947653589083      -0.7296069559447376      -0.7673832045092754      -0.759792074370996       -0.7644725178460428
0.55                      1.5                      0.4773127710569236       0.476487943288899        0.47402535561361575      0.46994366885800715      0.46427804759489466      0.4570743965446083       0.44841173286565483      0.4383315514046795       0.4270546435936175       0.414408276723412        0.4011706919674286       0.38657028789344233      0.3712736822230941       0.3575291561604096       0.33958701055499657      0.32556274559668813      0.32063706801825786      0.30053886991188233      0.2600842552964516       0.26700547458364227      0.31580254304773175      0.24769281412997335      0.25065624868626485      0.21619662305617407      0.32837792337377497      0.34081707502202424      0.2600830390919312       0.18136395870388958      0.03758903314666769      -0.09204786938552782     -0.18082872232367597     -0.3035838893081367      -0.3405057823162438      -0.38136881409297996     -0.34310905100404304     -0.46412416757200836     -0.4949522679803972      -0.5053465214493577      -0.5487667733473957      -0.6305409907315307      -0.6856481050721854      -0.6744178243504633      -0.699401954752612       -0.7695926411930013      -0.7640495496491293      -0.7311297242532794      -0.7410337343531754      -0.7422534290569407      -0.7612833475035948      -0.7685116041979317      -0.6482957074300623
0.6000000000000001        1.5                      0.4353575265929554       0.43456043133771866      0.43218273398530166      0.42824868624032486      0.42280220374023325      0.4159058592770891       0.40764092044942085      0.39812106212790976      0.3874439734799663       0.3758451567674515       0.36337008119049385      0.3503509855823132       0.3372822460834712       0.32304553537875746      0.312147888744084        0.3035696256748846       0.2946058436552656       0.2754176694608421       0.2446369148612866       0.270124314648021        0.26553622175303526      0.29325827901609897      0.27338554167006757      0.2963158562442617       0.21401854620538607      0.19297701592044694      0.25243255823759114      0.29647978266964214      0.2521934816376592       0.13272210294155937      -0.007572396664707875    -0.15231201858113175     -0.25332937108037595     -0.34125380955155316     -0.4437141493064023      -0.4929386727254114      -0.5650350535842881      -0.5615282675878853      -0.6227458330809152      -0.6360939982549635      -0.7188512400228281      -0.6429604118389437      -0.6899542816342916      -0.7567998386486882      -0.7603526748327072      -0.6958850933860037      -0.7711425985750283      -0.7327438101092257      -0.644300806302877       -0.8033906418963066      -0.6932313339517348
0.6500000000000001        1.5                      0.3948135942525768       0.3940586458623787       0.3918091631813803       0.38809561605823517      0.38297193893019804      0.37651548448282546      0.36882676014177984      0.36003637749413303      0.35029594742463216      0.33980943797986857      0.32879509551802827      0.31760945052041667      0.3062434598395925       0.2964599442131656       0.2890721305462604       0.2880701184589561       0.27928139546125613      0.23945411943044612      0.24664410038878964      0.27703593584719716      0.2634685786951558       0.30032813367561173      0.31318507083765196      0.22358564559885474      0.186598982262443        0.18803960443043244      0.21998826248599912      0.2742632276263649       0.3016207319435848       0.24352034606262457      0.13339339084400445      0.04835495381195835      -0.13740712422641901     -0.28308434384510106     -0.4333473782457558      -0.5228847361171095      -0.5787746819917696      -0.6551927356508201      -0.6463375405564697      -0.6936458916794542      -0.6659761330438464      -0.6721247959989933      -0.6585590478411664      -0.7678751224834882      -0.7272443570712185      -0.6359722341606533      -0.7802547074175108      -0.7026220473998994      -0.7038334901922351      -0.6958254576211611      -0.6215250061851939
0.7000000000000002        1.5                      0.3557823127517768       0.3550844279194881       0.35300800090155454      0.3495902129200166       0.3448960743214588       0.33901822763687944      0.33207878557257864      0.3242288791103705       0.31565854826340256      0.3066010077488244       0.29744715368221514      0.28851801880764727      0.28070929211822887      0.2754787415355617       0.2765491030419844       0.27520968607534535      0.2474416303555057       0.23668729562415117      0.27023849920392795      0.2413218267649027       0.3232032988674492       0.2946738456452596       0.20728408265863102      0.19230054057288476      0.21716945692118098      0.2521617731113722       0.24315788200000196      0.2219505392169867       0.2439647079602944       0.25783164311384715      0.25150020650670624      0.11456389721035233      -6.402587419761729E-4    -0.17349511572716456     -0.34578046581996297     -0.4771036595320946      -0.560911354235716       -0.6349170439595264      -0.6691246397766867      -0.7189004708852824      -0.6649886696681155      -0.6817543000255751      -0.6573229577056869      -0.7203446746194994      -0.6910583176945873      -0.706257175353808       -0.6700371093227818      -0.66774959661703        -0.6807419178010212      -0.7144012656359124      -0.6345483224707722
0.7500000000000002        1.5                      0.31836123996721766      0.3177357493093313       0.31587840902599895      0.31283359795503896      0.30867816094452694      0.30352130643331027      0.2975065148142368       0.2908124555043097       0.2836438363437026       0.2763350785961031       0.269498999271096        0.2640310472262832       0.261176830080035        0.2632700004037542       0.26579218023419066      0.24877033707742355      0.23215924726967832      0.2708520627535207       0.243752857519441        0.3154642758438971       0.25233878552948924      0.2079141453177007       0.21133304710616774      0.21863143968631124      0.23568601730153357      0.2509860503746853       0.2564315154781004       0.21158142536670627      0.1564644770754556       0.20859487957404307      0.18544206307960578      0.17175731669680994      0.08956460287949879      -0.0408356862248733      -0.19520199964623655     -0.3549541620059513      -0.4652298645604857      -0.5865331475332743      -0.6898076420408157      -0.7233098381824903      -0.7033877710162222      -0.6419344143426977      -0.6743965393288796      -0.7238239312570526      -0.6509641907658488      -0.6747021064796335      -0.7258684088486531      -0.6076168947160867      -0.6522110715210354      -0.6374471162366675      -0.6395492410202951
0.8000000000000003        1.5                      0.2826439090923502       0.28210645450374594      0.28051512906397885      0.2779219502879652       0.27441621757369494      0.27012461147073735      0.2652132866847845       0.25988877131117416      0.25434572154631546      0.249007656398509        0.24513632784178596      0.2443754285619854       0.24782654266965665      0.2518887787508897       0.24147154051012795      0.2274040026172856       0.26839574468531363      0.25180846619854014      0.3121733634996477       0.23196572982020952      0.19807798649414934      0.195164825153458        0.2196580023887052       0.25005876782274866      0.24969326672765346      0.23126931557367322      0.21365668824222178      0.2198424822051685       0.21944678637382134      0.10214547634724598      0.12121057989824999      0.13712786357149703      0.08376521350080074      0.02763117730881132      -0.05824828200746402     -0.23732467750510972     -0.37418248151281125     -0.5411932111211496      -0.6356795571980577      -0.670982022217573       -0.651176622122022       -0.6605629953845306      -0.6728985152394542      -0.6853256030877782      -0.605802155792032       -0.6785368409087434      -0.6764727097082355      -0.6418775309316849      -0.6597410564986244      -0.5782258666166454      -0.602400022938833
0.8500000000000003        1.5                      0.24871959485314252      0.24828601987909582      0.2470082503250821       0.2449462771285464       0.24220233944072617      0.23892119038100165      0.23529289403410028      0.23156127905236337      0.22780402201539482      0.22437881536552967      0.22354276996049346      0.2274053750136333       0.23254986982882456      0.22728296366840242      0.2199334645158099       0.2611452995967169       0.2546543432256828       0.3037820743489246       0.22044603244499453      0.19545781924491576      0.20297125860234397      0.2211898451717174       0.22230642729712566      0.23603691384452904      0.2352368165933814       0.20782704807187027      0.19839573723983578      0.2164478075930824       0.17466651409537653      0.15657113565266728      0.06527538512782419      0.024895304288091155     0.03906687799043504      0.002077478084182522     -0.03444096929164974     -0.1209150378531574      -0.2894412459889297      -0.39287303574455823     -0.5080041870743011      -0.5510460025374532      -0.6361818754645269      -0.676281694511536       -0.666748483179129       -0.6169279433542443      -0.5968079396956316      -0.6677868384819708      -0.5830037018921315      -0.6264332629416403      -0.7169008761514382      -0.5629829391114763      -0.5951239550234758
0.9000000000000004        1.5                      0.21667309036775642      0.2163593345130846       0.21544291745175237      0.21399208524130647      0.21212235704525165      0.20999692110838272      0.20782894094537868      0.20594854293196585      0.204077891991453        0.20170633435277044      0.20194868093358634      0.20613564244634003      0.20670216757964927      0.20989379708315578      0.25183915160161985      0.2496415776110028       0.2881002721659084       0.20404010862601882      0.1915024601358106       0.2042255642621325       0.22867465560465347      0.23679700197832884      0.23434403964663114      0.1999142213559035       0.19239279102404064      0.21848330344506234      0.21605330687489585      0.15003484208266782      0.1544920412875624       0.1274554070079693       0.05096411112030272      -0.021921039438466506    -0.030572000183522755    -0.04950041447825441     -0.0341833739462959      -0.07478429558780056     -0.13425672996146154     -0.24922561551134756     -0.3729298626101048      -0.46608102638590276     -0.5816081323477076      -0.6525316651937051      -0.6245892579623207      -0.6278437470470697      -0.6100399345770803      -0.6249494989346446      -0.5516209177857652      -0.5885650031811085      -0.6145076770424421      -0.5863666285332574      -0.5904882013742982
0.9500000000000004        1.5                      0.18658449520791298      0.18640649223125638      0.1858991930514755       0.18513921886842286      0.1842555582082576       0.1834304407239132       0.18288738021429135      0.18322113810628687      0.18357480564228462      0.18063800029467172      0.17828838345761586      0.18164238249364645      0.19728041857210346      0.2407118152888867       0.23757901166445552      0.27016864419767783      0.18597295790963556      0.179048648644469        0.20063632596440042      0.22107467559705676      0.22950835831440952      0.24018229339591018      0.21884623418075944      0.20954276976067376      0.21065023617875345      0.20426307572314747      0.16709740785121519      0.15829008098637057      0.11764036587814336      0.06191019399775987      0.0356428836228367       -0.012027477280696938    -0.06460651005887608     -0.09223102590891616     -0.06768300997676517     -0.034595544365397815    -0.05082414730885982     -0.09452169958872025     -0.2596982243395036      -0.39279876139250997     -0.49976148168670537     -0.5444713599213702      -0.5625674835304012      -0.6946762279526736      -0.6088936487057353      -0.5826065173548725      -0.6461221660485227      -0.5417783010360464      -0.5438262268491874      -0.6131369280944472      -0.538820950864303
1                         1.5                      0.15852901519167797      0.15850258797203107      0.1584517713610426       0.15846162980078576      0.15867442140197313      0.15929488632506025      0.16049242717361992      0.163571301585667        0.16780481044714474      0.16488280176754475      0.1629041580640207       0.18284060855772494      0.22478289189837622      0.21919858633161127      0.2537886466335026       0.17020703399570844      0.1676368721165109       0.19430832493497074      0.20917039836545598      0.22044648009500467      0.20492185056327003      0.20794903424287844      0.22430839999988703      0.21330667707002143      0.2098038565030607       0.17887715473957114      0.1460853893480474       0.10467560978439404      0.07641711937213022      0.07914862715118741      0.03691418120260084      0.020219351114704843     0.014566817338473145     -0.06589561326250502     -0.06289403108213124     -0.058676093543602044    -0.07033412865021237     -0.10557585241940934     -0.1566259004414981      -0.2506880557395876      -0.32422753854404024     -0.49529110825042116     -0.5512629951391435      -0.5973551598425507      -0.6089956595083674      -0.616724597817633       -0.5831901486845166      -0.5368694792813621      -0.5592998761435245      -0.5304003795728256      -0.5299196645898924