% Model:              Q8final.mph
% Version:            COMSOL 5.5.0.292
% Date:               Oct 22 2021, 19:49
% Dimension:          2
% Nodes:              41
% Expressions:        1001
% Description:        Dependent variable u
% Length unit:        m
% X                       Y                        u (1) @ t=0              u (1) @ t=0.001          u (1) @ t=0.002          u (1) @ t=0.003          u (1) @ t=0.004          u (1) @ t=0.005          u (1) @ t=0.006          u (1) @ t=0.007          u (1) @ t=0.008          u (1) @ t=0.009          u (1) @ t=0.01           u (1) @ t=0.011          u (1) @ t=0.012          u (1) @ t=0.013          u (1) @ t=0.014          u (1) @ t=0.015          u (1) @ t=0.016          u (1) @ t=0.017          u (1) @ t=0.018          u (1) @ t=0.019          u (1) @ t=0.02           u (1) @ t=0.021          u (1) @ t=0.022          u (1) @ t=0.023          u (1) @ t=0.024          u (1) @ t=0.025          u (1) @ t=0.026          u (1) @ t=0.027          u (1) @ t=0.028          u (1) @ t=0.029          u (1) @ t=0.03           u (1) @ t=0.031          u (1) @ t=0.032          u (1) @ t=0.033          u (1) @ t=0.034          u (1) @ t=0.035          u (1) @ t=0.036          u (1) @ t=0.037          u (1) @ t=0.038          u (1) @ t=0.039          u (1) @ t=0.04           u (1) @ t=0.041          u (1) @ t=0.042          u (1) @ t=0.043          u (1) @ t=0.044          u (1) @ t=0.045          u (1) @ t=0.046          u (1) @ t=0.047          u (1) @ t=0.048          u (1) @ t=0.049          u (1) @ t=0.05           u (1) @ t=0.051          u (1) @ t=0.052          u (1) @ t=0.053          u (1) @ t=0.054          u (1) @ t=0.055          u (1) @ t=0.056          u (1) @ t=0.057          u (1) @ t=0.058          u (1) @ t=0.059          u (1) @ t=0.06           u (1) @ t=0.061          u (1) @ t=0.062          u (1) @ t=0.063          u (1) @ t=0.064          u (1) @ t=0.065          u (1) @ t=0.066          u (1) @ t=0.067          u (1) @ t=0.068          u (1) @ t=0.069          u (1) @ t=0.07           u (1) @ t=0.071          u (1) @ t=0.072          u (1) @ t=0.073          u (1) @ t=0.074          u (1) @ t=0.075          u (1) @ t=0.076          u (1) @ t=0.077          u (1) @ t=0.078          u (1) @ t=0.079          u (1) @ t=0.08           u (1) @ t=0.081          u (1) @ t=0.082          u (1) @ t=0.083          u (1) @ t=0.084          u (1) @ t=0.085          u (1) @ t=0.086          u (1) @ t=0.087          u (1) @ t=0.088          u (1) @ t=0.089          u (1) @ t=0.09           u (1) @ t=0.091          u (1) @ t=0.092          u (1) @ t=0.093          u (1) @ t=0.094          u (1) @ t=0.095          u (1) @ t=0.096          u (1) @ t=0.097          u (1) @ t=0.098          u (1) @ t=0.099          u (1) @ t=0.1            u (1) @ t=0.101          u (1) @ t=0.102          u (1) @ t=0.103          u (1) @ t=0.104          u (1) @ t=0.105          u (1) @ t=0.106          u (1) @ t=0.107          u (1) @ t=0.108          u (1) @ t=0.109          u (1) @ t=0.11           u (1) @ t=0.111          u (1) @ t=0.112          u (1) @ t=0.113          u (1) @ t=0.114          u (1) @ t=0.115          u (1) @ t=0.116          u (1) @ t=0.117          u (1) @ t=0.118          u (1) @ t=0.119          u (1) @ t=0.12           u (1) @ t=0.121          u (1) @ t=0.122          u (1) @ t=0.123          u (1) @ t=0.124          u (1) @ t=0.125          u (1) @ t=0.126          u (1) @ t=0.127          u (1) @ t=0.128          u (1) @ t=0.129          u (1) @ t=0.13           u (1) @ t=0.131          u (1) @ t=0.132          u (1) @ t=0.133          u (1) @ t=0.134          u (1) @ t=0.135          u (1) @ t=0.136          u (1) @ t=0.137          u (1) @ t=0.138          u (1) @ t=0.139          u (1) @ t=0.14           u (1) @ t=0.141          u (1) @ t=0.142          u (1) @ t=0.143          u (1) @ t=0.144          u (1) @ t=0.145          u (1) @ t=0.146          u (1) @ t=0.147          u (1) @ t=0.148          u (1) @ t=0.149          u (1) @ t=0.15           u (1) @ t=0.151          u (1) @ t=0.152          u (1) @ t=0.153          u (1) @ t=0.154          u (1) @ t=0.155          u (1) @ t=0.156          u (1) @ t=0.157          u (1) @ t=0.158          u (1) @ t=0.159          u (1) @ t=0.16           u (1) @ t=0.161          u (1) @ t=0.162          u (1) @ t=0.163          u (1) @ t=0.164          u (1) @ t=0.165          u (1) @ t=0.166          u (1) @ t=0.167          u (1) @ t=0.168          u (1) @ t=0.169          u (1) @ t=0.17           u (1) @ t=0.171          u (1) @ t=0.172          u (1) @ t=0.173          u (1) @ t=0.174          u (1) @ t=0.175          u (1) @ t=0.176          u (1) @ t=0.177          u (1) @ t=0.178          u (1) @ t=0.179          u (1) @ t=0.18           u (1) @ t=0.181          u (1) @ t=0.182          u (1) @ t=0.183          u (1) @ t=0.184          u (1) @ t=0.185          u (1) @ t=0.186          u (1) @ t=0.187          u (1) @ t=0.188          u (1) @ t=0.189          u (1) @ t=0.19           u (1) @ t=0.191          u (1) @ t=0.192          u (1) @ t=0.193          u (1) @ t=0.194          u (1) @ t=0.195          u (1) @ t=0.196          u (1) @ t=0.197          u (1) @ t=0.198          u (1) @ t=0.199          u (1) @ t=0.2            u (1) @ t=0.201          u (1) @ t=0.202          u (1) @ t=0.203          u (1) @ t=0.204          u (1) @ t=0.205          u (1) @ t=0.206          u (1) @ t=0.207          u (1) @ t=0.208          u (1) @ t=0.209          u (1) @ t=0.21           u (1) @ t=0.211          u (1) @ t=0.212          u (1) @ t=0.213          u (1) @ t=0.214          u (1) @ t=0.215          u (1) @ t=0.216          u (1) @ t=0.217          u (1) @ t=0.218          u (1) @ t=0.219          u (1) @ t=0.22           u (1) @ t=0.221          u (1) @ t=0.222          u (1) @ t=0.223          u (1) @ t=0.224          u (1) @ t=0.225          u (1) @ t=0.226          u (1) @ t=0.227          u (1) @ t=0.228          u (1) @ t=0.229          u (1) @ t=0.23           u (1) @ t=0.231          u (1) @ t=0.232          u (1) @ t=0.233          u (1) @ t=0.234          u (1) @ t=0.235          u (1) @ t=0.236          u (1) @ t=0.237          u (1) @ t=0.238          u (1) @ t=0.239          u (1) @ t=0.24           u (1) @ t=0.241          u (1) @ t=0.242          u (1) @ t=0.243          u (1) @ t=0.244          u (1) @ t=0.245          u (1) @ t=0.246          u (1) @ t=0.247          u (1) @ t=0.248          u (1) @ t=0.249          u (1) @ t=0.25           u (1) @ t=0.251          u (1) @ t=0.252          u (1) @ t=0.253          u (1) @ t=0.254          u (1) @ t=0.255          u (1) @ t=0.256          u (1) @ t=0.257          u (1) @ t=0.258          u (1) @ t=0.259          u (1) @ t=0.26           u (1) @ t=0.261          u (1) @ t=0.262          u (1) @ t=0.263          u (1) @ t=0.264          u (1) @ t=0.265          u (1) @ t=0.266          u (1) @ t=0.267          u (1) @ t=0.268          u (1) @ t=0.269          u (1) @ t=0.27           u (1) @ t=0.271          u (1) @ t=0.272          u (1) @ t=0.273          u (1) @ t=0.274          u (1) @ t=0.275          u (1) @ t=0.276          u (1) @ t=0.277          u (1) @ t=0.278          u (1) @ t=0.279          u (1) @ t=0.28           u (1) @ t=0.281          u (1) @ t=0.282          u (1) @ t=0.283          u (1) @ t=0.284          u (1) @ t=0.285          u (1) @ t=0.286          u (1) @ t=0.287          u (1) @ t=0.288          u (1) @ t=0.289          u (1) @ t=0.29           u (1) @ t=0.291          u (1) @ t=0.292          u (1) @ t=0.293          u (1) @ t=0.294          u (1) @ t=0.295          u (1) @ t=0.296          u (1) @ t=0.297          u (1) @ t=0.298          u (1) @ t=0.299          u (1) @ t=0.3            u (1) @ t=0.301          u (1) @ t=0.302          u (1) @ t=0.303          u (1) @ t=0.304          u (1) @ t=0.305          u (1) @ t=0.306          u (1) @ t=0.307          u (1) @ t=0.308          u (1) @ t=0.309          u (1) @ t=0.31           u (1) @ t=0.311          u (1) @ t=0.312          u (1) @ t=0.313          u (1) @ t=0.314          u (1) @ t=0.315          u (1) @ t=0.316          u (1) @ t=0.317          u (1) @ t=0.318          u (1) @ t=0.319          u (1) @ t=0.32           u (1) @ t=0.321          u (1) @ t=0.322          u (1) @ t=0.323          u (1) @ t=0.324          u (1) @ t=0.325          u (1) @ t=0.326          u (1) @ t=0.327          u (1) @ t=0.328          u (1) @ t=0.329          u (1) @ t=0.33           u (1) @ t=0.331          u (1) @ t=0.332          u (1) @ t=0.333          u (1) @ t=0.334          u (1) @ t=0.335          u (1) @ t=0.336          u (1) @ t=0.337          u (1) @ t=0.338          u (1) @ t=0.339          u (1) @ t=0.34           u (1) @ t=0.341          u (1) @ t=0.342          u (1) @ t=0.343          u (1) @ t=0.344          u (1) @ t=0.345          u (1) @ t=0.346          u (1) @ t=0.347          u (1) @ t=0.348          u (1) @ t=0.349          u (1) @ t=0.35           u (1) @ t=0.351          u (1) @ t=0.352          u (1) @ t=0.353          u (1) @ t=0.354          u (1) @ t=0.355          u (1) @ t=0.356          u (1) @ t=0.357          u (1) @ t=0.358          u (1) @ t=0.359          u (1) @ t=0.36           u (1) @ t=0.361          u (1) @ t=0.362          u (1) @ t=0.363          u (1) @ t=0.364          u (1) @ t=0.365          u (1) @ t=0.366          u (1) @ t=0.367          u (1) @ t=0.368          u (1) @ t=0.369          u (1) @ t=0.37           u (1) @ t=0.371          u (1) @ t=0.372          u (1) @ t=0.373          u (1) @ t=0.374          u (1) @ t=0.375          u (1) @ t=0.376          u (1) @ t=0.377          u (1) @ t=0.378          u (1) @ t=0.379          u (1) @ t=0.38           u (1) @ t=0.381          u (1) @ t=0.382          u (1) @ t=0.383          u (1) @ t=0.384          u (1) @ t=0.385          u (1) @ t=0.386          u (1) @ t=0.387          u (1) @ t=0.388          u (1) @ t=0.389          u (1) @ t=0.39           u (1) @ t=0.391          u (1) @ t=0.392          u (1) @ t=0.393          u (1) @ t=0.394          u (1) @ t=0.395          u (1) @ t=0.396          u (1) @ t=0.397          u (1) @ t=0.398          u (1) @ t=0.399          u (1) @ t=0.4            u (1) @ t=0.401          u (1) @ t=0.402          u (1) @ t=0.403          u (1) @ t=0.404          u (1) @ t=0.405          u (1) @ t=0.406          u (1) @ t=0.407          u (1) @ t=0.408          u (1) @ t=0.409          u (1) @ t=0.41           u (1) @ t=0.411          u (1) @ t=0.412          u (1) @ t=0.413          u (1) @ t=0.414          u (1) @ t=0.415          u (1) @ t=0.416          u (1) @ t=0.417          u (1) @ t=0.418          u (1) @ t=0.419          u (1) @ t=0.42           u (1) @ t=0.421          u (1) @ t=0.422          u (1) @ t=0.423          u (1) @ t=0.424          u (1) @ t=0.425          u (1) @ t=0.426          u (1) @ t=0.427          u (1) @ t=0.428          u (1) @ t=0.429          u (1) @ t=0.43           u (1) @ t=0.431          u (1) @ t=0.432          u (1) @ t=0.433          u (1) @ t=0.434          u (1) @ t=0.435          u (1) @ t=0.436          u (1) @ t=0.437          u (1) @ t=0.438          u (1) @ t=0.439          u (1) @ t=0.44           u (1) @ t=0.441          u (1) @ t=0.442          u (1) @ t=0.443          u (1) @ t=0.444          u (1) @ t=0.445          u (1) @ t=0.446          u (1) @ t=0.447          u (1) @ t=0.448          u (1) @ t=0.449          u (1) @ t=0.45           u (1) @ t=0.451          u (1) @ t=0.452          u (1) @ t=0.453          u (1) @ t=0.454          u (1) @ t=0.455          u (1) @ t=0.456          u (1) @ t=0.457          u (1) @ t=0.458          u (1) @ t=0.459          u (1) @ t=0.46           u (1) @ t=0.461          u (1) @ t=0.462          u (1) @ t=0.463          u (1) @ t=0.464          u (1) @ t=0.465          u (1) @ t=0.466          u (1) @ t=0.467          u (1) @ t=0.468          u (1) @ t=0.469          u (1) @ t=0.47           u (1) @ t=0.471          u (1) @ t=0.472          u (1) @ t=0.473          u (1) @ t=0.474          u (1) @ t=0.475          u (1) @ t=0.476          u (1) @ t=0.477          u (1) @ t=0.478          u (1) @ t=0.479          u (1) @ t=0.48           u (1) @ t=0.481          u (1) @ t=0.482          u (1) @ t=0.483          u (1) @ t=0.484          u (1) @ t=0.485          u (1) @ t=0.486          u (1) @ t=0.487          u (1) @ t=0.488          u (1) @ t=0.489          u (1) @ t=0.49           u (1) @ t=0.491          u (1) @ t=0.492          u (1) @ t=0.493          u (1) @ t=0.494          u (1) @ t=0.495          u (1) @ t=0.496          u (1) @ t=0.497          u (1) @ t=0.498          u (1) @ t=0.499          u (1) @ t=0.5            u (1) @ t=0.501          u (1) @ t=0.502          u (1) @ t=0.503          u (1) @ t=0.504          u (1) @ t=0.505          u (1) @ t=0.506          u (1) @ t=0.507          u (1) @ t=0.508          u (1) @ t=0.509          u (1) @ t=0.51           u (1) @ t=0.511          u (1) @ t=0.512          u (1) @ t=0.513          u (1) @ t=0.514          u (1) @ t=0.515          u (1) @ t=0.516          u (1) @ t=0.517          u (1) @ t=0.518          u (1) @ t=0.519          u (1) @ t=0.52           u (1) @ t=0.521          u (1) @ t=0.522          u (1) @ t=0.523          u (1) @ t=0.524          u (1) @ t=0.525          u (1) @ t=0.526          u (1) @ t=0.527          u (1) @ t=0.528          u (1) @ t=0.529          u (1) @ t=0.53           u (1) @ t=0.531          u (1) @ t=0.532          u (1) @ t=0.533          u (1) @ t=0.534          u (1) @ t=0.535          u (1) @ t=0.536          u (1) @ t=0.537          u (1) @ t=0.538          u (1) @ t=0.539          u (1) @ t=0.54           u (1) @ t=0.541          u (1) @ t=0.542          u (1) @ t=0.543          u (1) @ t=0.544          u (1) @ t=0.545          u (1) @ t=0.546          u (1) @ t=0.547          u (1) @ t=0.548          u (1) @ t=0.549          u (1) @ t=0.55           u (1) @ t=0.551          u (1) @ t=0.552          u (1) @ t=0.553          u (1) @ t=0.554          u (1) @ t=0.555          u (1) @ t=0.556          u (1) @ t=0.557          u (1) @ t=0.558          u (1) @ t=0.559          u (1) @ t=0.56           u (1) @ t=0.561          u (1) @ t=0.562          u (1) @ t=0.563          u (1) @ t=0.564          u (1) @ t=0.565          u (1) @ t=0.566          u (1) @ t=0.567          u (1) @ t=0.568          u (1) @ t=0.569          u (1) @ t=0.57           u (1) @ t=0.571          u (1) @ t=0.572          u (1) @ t=0.573          u (1) @ t=0.574          u (1) @ t=0.575          u (1) @ t=0.576          u (1) @ t=0.577          u (1) @ t=0.578          u (1) @ t=0.579          u (1) @ t=0.58           u (1) @ t=0.581          u (1) @ t=0.582          u (1) @ t=0.583          u (1) @ t=0.584          u (1) @ t=0.585          u (1) @ t=0.586          u (1) @ t=0.587          u (1) @ t=0.588          u (1) @ t=0.589          u (1) @ t=0.59           u (1) @ t=0.591          u (1) @ t=0.592          u (1) @ t=0.593          u (1) @ t=0.594          u (1) @ t=0.595          u (1) @ t=0.596          u (1) @ t=0.597          u (1) @ t=0.598          u (1) @ t=0.599          u (1) @ t=0.6            u (1) @ t=0.601          u (1) @ t=0.602          u (1) @ t=0.603          u (1) @ t=0.604          u (1) @ t=0.605          u (1) @ t=0.606          u (1) @ t=0.607          u (1) @ t=0.608          u (1) @ t=0.609          u (1) @ t=0.61           u (1) @ t=0.611          u (1) @ t=0.612          u (1) @ t=0.613          u (1) @ t=0.614          u (1) @ t=0.615          u (1) @ t=0.616          u (1) @ t=0.617          u (1) @ t=0.618          u (1) @ t=0.619          u (1) @ t=0.62           u (1) @ t=0.621          u (1) @ t=0.622          u (1) @ t=0.623          u (1) @ t=0.624          u (1) @ t=0.625          u (1) @ t=0.626          u (1) @ t=0.627          u (1) @ t=0.628          u (1) @ t=0.629          u (1) @ t=0.63           u (1) @ t=0.631          u (1) @ t=0.632          u (1) @ t=0.633          u (1) @ t=0.634          u (1) @ t=0.635          u (1) @ t=0.636          u (1) @ t=0.637          u (1) @ t=0.638          u (1) @ t=0.639          u (1) @ t=0.64           u (1) @ t=0.641          u (1) @ t=0.642          u (1) @ t=0.643          u (1) @ t=0.644          u (1) @ t=0.645          u (1) @ t=0.646          u (1) @ t=0.647          u (1) @ t=0.648          u (1) @ t=0.649          u (1) @ t=0.65           u (1) @ t=0.651          u (1) @ t=0.652          u (1) @ t=0.653          u (1) @ t=0.654          u (1) @ t=0.655          u (1) @ t=0.656          u (1) @ t=0.657          u (1) @ t=0.658          u (1) @ t=0.659          u (1) @ t=0.66           u (1) @ t=0.661          u (1) @ t=0.662          u (1) @ t=0.663          u (1) @ t=0.664          u (1) @ t=0.665          u (1) @ t=0.666          u (1) @ t=0.667          u (1) @ t=0.668          u (1) @ t=0.669          u (1) @ t=0.67           u (1) @ t=0.671          u (1) @ t=0.672          u (1) @ t=0.673          u (1) @ t=0.674          u (1) @ t=0.675          u (1) @ t=0.676          u (1) @ t=0.677          u (1) @ t=0.678          u (1) @ t=0.679          u (1) @ t=0.68           u (1) @ t=0.681          u (1) @ t=0.682          u (1) @ t=0.683          u (1) @ t=0.684          u (1) @ t=0.685          u (1) @ t=0.686          u (1) @ t=0.687          u (1) @ t=0.688          u (1) @ t=0.689          u (1) @ t=0.69           u (1) @ t=0.691          u (1) @ t=0.692          u (1) @ t=0.693          u (1) @ t=0.694          u (1) @ t=0.695          u (1) @ t=0.696          u (1) @ t=0.697          u (1) @ t=0.698          u (1) @ t=0.699          u (1) @ t=0.7            u (1) @ t=0.701          u (1) @ t=0.702          u (1) @ t=0.703          u (1) @ t=0.704          u (1) @ t=0.705          u (1) @ t=0.706          u (1) @ t=0.707          u (1) @ t=0.708          u (1) @ t=0.709          u (1) @ t=0.71           u (1) @ t=0.711          u (1) @ t=0.712          u (1) @ t=0.713          u (1) @ t=0.714          u (1) @ t=0.715          u (1) @ t=0.716          u (1) @ t=0.717          u (1) @ t=0.718          u (1) @ t=0.719          u (1) @ t=0.72           u (1) @ t=0.721          u (1) @ t=0.722          u (1) @ t=0.723          u (1) @ t=0.724          u (1) @ t=0.725          u (1) @ t=0.726          u (1) @ t=0.727          u (1) @ t=0.728          u (1) @ t=0.729          u (1) @ t=0.73           u (1) @ t=0.731          u (1) @ t=0.732          u (1) @ t=0.733          u (1) @ t=0.734          u (1) @ t=0.735          u (1) @ t=0.736          u (1) @ t=0.737          u (1) @ t=0.738          u (1) @ t=0.739          u (1) @ t=0.74           u (1) @ t=0.741          u (1) @ t=0.742          u (1) @ t=0.743          u (1) @ t=0.744          u (1) @ t=0.745          u (1) @ t=0.746          u (1) @ t=0.747          u (1) @ t=0.748          u (1) @ t=0.749          u (1) @ t=0.75           u (1) @ t=0.751          u (1) @ t=0.752          u (1) @ t=0.753          u (1) @ t=0.754          u (1) @ t=0.755          u (1) @ t=0.756          u (1) @ t=0.757          u (1) @ t=0.758          u (1) @ t=0.759          u (1) @ t=0.76           u (1) @ t=0.761          u (1) @ t=0.762          u (1) @ t=0.763          u (1) @ t=0.764          u (1) @ t=0.765          u (1) @ t=0.766          u (1) @ t=0.767          u (1) @ t=0.768          u (1) @ t=0.769          u (1) @ t=0.77           u (1) @ t=0.771          u (1) @ t=0.772          u (1) @ t=0.773          u (1) @ t=0.774          u (1) @ t=0.775          u (1) @ t=0.776          u (1) @ t=0.777          u (1) @ t=0.778          u (1) @ t=0.779          u (1) @ t=0.78           u (1) @ t=0.781          u (1) @ t=0.782          u (1) @ t=0.783          u (1) @ t=0.784          u (1) @ t=0.785          u (1) @ t=0.786          u (1) @ t=0.787          u (1) @ t=0.788          u (1) @ t=0.789          u (1) @ t=0.79           u (1) @ t=0.791          u (1) @ t=0.792          u (1) @ t=0.793          u (1) @ t=0.794          u (1) @ t=0.795          u (1) @ t=0.796          u (1) @ t=0.797          u (1) @ t=0.798          u (1) @ t=0.799          u (1) @ t=0.8            u (1) @ t=0.801          u (1) @ t=0.802          u (1) @ t=0.803          u (1) @ t=0.804          u (1) @ t=0.805          u (1) @ t=0.806          u (1) @ t=0.807          u (1) @ t=0.808          u (1) @ t=0.809          u (1) @ t=0.81           u (1) @ t=0.811          u (1) @ t=0.812          u (1) @ t=0.813          u (1) @ t=0.814          u (1) @ t=0.815          u (1) @ t=0.816          u (1) @ t=0.817          u (1) @ t=0.818          u (1) @ t=0.819          u (1) @ t=0.82           u (1) @ t=0.821          u (1) @ t=0.822          u (1) @ t=0.823          u (1) @ t=0.824          u (1) @ t=0.825          u (1) @ t=0.826          u (1) @ t=0.827          u (1) @ t=0.828          u (1) @ t=0.829          u (1) @ t=0.83           u (1) @ t=0.831          u (1) @ t=0.832          u (1) @ t=0.833          u (1) @ t=0.834          u (1) @ t=0.835          u (1) @ t=0.836          u (1) @ t=0.837          u (1) @ t=0.838          u (1) @ t=0.839          u (1) @ t=0.84           u (1) @ t=0.841          u (1) @ t=0.842          u (1) @ t=0.843          u (1) @ t=0.844          u (1) @ t=0.845          u (1) @ t=0.846          u (1) @ t=0.847          u (1) @ t=0.848          u (1) @ t=0.849          u (1) @ t=0.85           u (1) @ t=0.851          u (1) @ t=0.852          u (1) @ t=0.853          u (1) @ t=0.854          u (1) @ t=0.855          u (1) @ t=0.856          u (1) @ t=0.857          u (1) @ t=0.858          u (1) @ t=0.859          u (1) @ t=0.86           u (1) @ t=0.861          u (1) @ t=0.862          u (1) @ t=0.863          u (1) @ t=0.864          u (1) @ t=0.865          u (1) @ t=0.866          u (1) @ t=0.867          u (1) @ t=0.868          u (1) @ t=0.869          u (1) @ t=0.87           u (1) @ t=0.871          u (1) @ t=0.872          u (1) @ t=0.873          u (1) @ t=0.874          u (1) @ t=0.875          u (1) @ t=0.876          u (1) @ t=0.877          u (1) @ t=0.878          u (1) @ t=0.879          u (1) @ t=0.88           u (1) @ t=0.881          u (1) @ t=0.882          u (1) @ t=0.883          u (1) @ t=0.884          u (1) @ t=0.885          u (1) @ t=0.886          u (1) @ t=0.887          u (1) @ t=0.888          u (1) @ t=0.889          u (1) @ t=0.89           u (1) @ t=0.891          u (1) @ t=0.892          u (1) @ t=0.893          u (1) @ t=0.894          u (1) @ t=0.895          u (1) @ t=0.896          u (1) @ t=0.897          u (1) @ t=0.898          u (1) @ t=0.899          u (1) @ t=0.9            u (1) @ t=0.901          u (1) @ t=0.902          u (1) @ t=0.903          u (1) @ t=0.904          u (1) @ t=0.905          u (1) @ t=0.906          u (1) @ t=0.907          u (1) @ t=0.908          u (1) @ t=0.909          u (1) @ t=0.91           u (1) @ t=0.911          u (1) @ t=0.912          u (1) @ t=0.913          u (1) @ t=0.914          u (1) @ t=0.915          u (1) @ t=0.916          u (1) @ t=0.917          u (1) @ t=0.918          u (1) @ t=0.919          u (1) @ t=0.92           u (1) @ t=0.921          u (1) @ t=0.922          u (1) @ t=0.923          u (1) @ t=0.924          u (1) @ t=0.925          u (1) @ t=0.926          u (1) @ t=0.927          u (1) @ t=0.928          u (1) @ t=0.929          u (1) @ t=0.93           u (1) @ t=0.931          u (1) @ t=0.932          u (1) @ t=0.933          u (1) @ t=0.934          u (1) @ t=0.935          u (1) @ t=0.936          u (1) @ t=0.937          u (1) @ t=0.938          u (1) @ t=0.939          u (1) @ t=0.94           u (1) @ t=0.941          u (1) @ t=0.942          u (1) @ t=0.943          u (1) @ t=0.944          u (1) @ t=0.945          u (1) @ t=0.946          u (1) @ t=0.947          u (1) @ t=0.948          u (1) @ t=0.949          u (1) @ t=0.95           u (1) @ t=0.951          u (1) @ t=0.952          u (1) @ t=0.953          u (1) @ t=0.954          u (1) @ t=0.955          u (1) @ t=0.956          u (1) @ t=0.957          u (1) @ t=0.958          u (1) @ t=0.959          u (1) @ t=0.96           u (1) @ t=0.961          u (1) @ t=0.962          u (1) @ t=0.963          u (1) @ t=0.964          u (1) @ t=0.965          u (1) @ t=0.966          u (1) @ t=0.967          u (1) @ t=0.968          u (1) @ t=0.969          u (1) @ t=0.97           u (1) @ t=0.971          u (1) @ t=0.972          u (1) @ t=0.973          u (1) @ t=0.974          u (1) @ t=0.975          u (1) @ t=0.976          u (1) @ t=0.977          u (1) @ t=0.978          u (1) @ t=0.979          u (1) @ t=0.98           u (1) @ t=0.981          u (1) @ t=0.982          u (1) @ t=0.983          u (1) @ t=0.984          u (1) @ t=0.985          u (1) @ t=0.986          u (1) @ t=0.987          u (1) @ t=0.988          u (1) @ t=0.989          u (1) @ t=0.99           u (1) @ t=0.991          u (1) @ t=0.992          u (1) @ t=0.993          u (1) @ t=0.994          u (1) @ t=0.995          u (1) @ t=0.996          u (1) @ t=0.997          u (1) @ t=0.998          u (1) @ t=0.999          u (1) @ t=1