% Model:              assn2q4.mph
% Version:            COMSOL 5.6.0.401
% Date:               Oct 19 2021, 13:26
% Dimension:          2
% Nodes:              1
% Expressions:        101
% Description:        Dependent variable u
% Length unit:        m
% X                       Y                        u (1) @ t=0              u (1) @ t=0.01           u (1) @ t=0.02           u (1) @ t=0.03           u (1) @ t=0.04           u (1) @ t=0.05           u (1) @ t=0.06           u (1) @ t=0.07           u (1) @ t=0.08           u (1) @ t=0.09           u (1) @ t=0.1            u (1) @ t=0.11           u (1) @ t=0.12           u (1) @ t=0.13           u (1) @ t=0.14           u (1) @ t=0.15           u (1) @ t=0.16           u (1) @ t=0.17           u (1) @ t=0.18           u (1) @ t=0.19           u (1) @ t=0.2            u (1) @ t=0.21           u (1) @ t=0.22           u (1) @ t=0.23           u (1) @ t=0.24           u (1) @ t=0.25           u (1) @ t=0.26           u (1) @ t=0.27           u (1) @ t=0.28           u (1) @ t=0.29           u (1) @ t=0.3            u (1) @ t=0.31           u (1) @ t=0.32           u (1) @ t=0.33           u (1) @ t=0.34           u (1) @ t=0.35           u (1) @ t=0.36           u (1) @ t=0.37           u (1) @ t=0.38           u (1) @ t=0.39           u (1) @ t=0.4            u (1) @ t=0.41           u (1) @ t=0.42           u (1) @ t=0.43           u (1) @ t=0.44           u (1) @ t=0.45           u (1) @ t=0.46           u (1) @ t=0.47           u (1) @ t=0.48           u (1) @ t=0.49           u (1) @ t=0.5            u (1) @ t=0.51           u (1) @ t=0.52           u (1) @ t=0.53           u (1) @ t=0.54           u (1) @ t=0.55           u (1) @ t=0.56           u (1) @ t=0.57           u (1) @ t=0.58           u (1) @ t=0.59           u (1) @ t=0.6            u (1) @ t=0.61           u (1) @ t=0.62           u (1) @ t=0.63           u (1) @ t=0.64           u (1) @ t=0.65           u (1) @ t=0.66           u (1) @ t=0.67           u (1) @ t=0.68           u (1) @ t=0.69           u (1) @ t=0.7            u (1) @ t=0.71           u (1) @ t=0.72           u (1) @ t=0.73           u (1) @ t=0.74           u (1) @ t=0.75           u (1) @ t=0.76           u (1) @ t=0.77           u (1) @ t=0.78           u (1) @ t=0.79           u (1) @ t=0.8            u (1) @ t=0.81           u (1) @ t=0.82           u (1) @ t=0.83           u (1) @ t=0.84           u (1) @ t=0.85           u (1) @ t=0.86           u (1) @ t=0.87           u (1) @ t=0.88           u (1) @ t=0.89           u (1) @ t=0.9            u (1) @ t=0.91           u (1) @ t=0.92           u (1) @ t=0.93           u (1) @ t=0.94           u (1) @ t=0.95           u (1) @ t=0.96           u (1) @ t=0.97           u (1) @ t=0.98           u (1) @ t=0.99           u (1) @ t=1
1                         1.5                      2.249999999298001        2.237655435441458        2.2025764403510792       2.1444870409909527       2.063595760265515        1.9604712891072817       1.8352980344214838       1.6887971774643569       1.5217766984380188       1.3345772844976738       1.1283544044212999       0.9040704645795344       0.6632616378483179       0.4077029411595935       0.13926903335070234      -0.13910614820991668     -0.42397287695459734     -0.7115332303358592      -0.9965832346779324      -1.2734235748306983      -1.534759737161366       -1.773861927428025       -1.983404678157587       -2.1576488918873866      -2.2921550699225866      -2.384765877601433       -2.438866998388948       -2.458946475547418       -2.4523808889646217      -2.4224988187752627      -2.3729450719435534      -2.2981663407465183      -2.1916666690828417      -2.0429918400977494      -1.8520437252012887      -1.6231865562912369      -1.3703987060816523      -1.113078283691851       -0.862079366730937       -0.6225733111268605      -0.39393032102111664     -0.17220283703201372     0.05914176635668052      0.30771043609793586      0.5792916735785093       0.8631379198278003       1.1374113132856694       1.3838098450025704       1.5959863253904443       1.7800101893117664       1.9483082788319497       2.1087278360761212       2.257309702895933        2.3806775608143744       2.465357769503374        2.505616219575346        2.501447442426602        2.447517232863885        2.336189206335573        2.1798973447843637       2.009836807846376        1.8351870892671742       1.6360004894835345       1.406249903989743        1.1664473400681912       0.9444893516497479       0.7515855041130135       0.5767979395427474       0.39216345969957267      0.17070677496017703      -0.08784069401785474     -0.3606344078602862      -0.6305972093555329      -0.8877206020275485      -1.118598250438103       -1.3065268215349142      -1.4487860564353905      -1.571148187089486       -1.7102269755700161      -1.8820601638642562      -2.0748037725430972      -2.260104374086053       -2.3996381641052857      -2.466212294735951       -2.4643944395063038      -2.428481588323756       -2.4050382957372296      -2.4065216166271517      -2.3877215009082375      -2.270873879883283       -2.016785309922202       -1.6731050897302677      -1.3514306018510827      -1.1113294294910248      -0.8865160375714524      -0.5685607811203576      -0.1501027436558646      0.22619788075699082      0.41544536434742485      0.5209456477821195       0.7598229902528515
